15353
 Atoms. Timestep: 45000
4 0 0 -54.31
4 0 2.7155 -51.5945
4 2.7155 0 -51.5945
4 2.7155 2.7155 -54.31
4 1.35775 1.35775 -52.9522
4 1.35775 4.07325 -50.2368
4 4.07325 1.35775 -50.2368
4 4.07325 4.07325 -52.9522
4 5.431 0 -54.31
4 5.431 2.7155 -51.5945
4 8.1465 0 -51.5945
4 8.1465 2.7155 -54.31
4 6.78875 1.35775 -52.9522
4 6.78875 4.07325 -50.2368
4 9.50425 1.35775 -50.2368
4 9.50425 4.07325 -52.9522
4 10.862 0 -54.31
4 10.862 2.7155 -51.5945
4 13.5775 0 -51.5945
4 13.5775 2.7155 -54.31
4 12.2197 1.35775 -52.9522
4 12.2197 4.07325 -50.2368
4 14.9352 1.35775 -50.2368
4 14.9352 4.07325 -52.9522
4 16.293 0 -54.31
4 16.293 2.7155 -51.5945
4 19.0085 0 -51.5945
4 19.0085 2.7155 -54.31
4 17.6507 1.35775 -52.9522
4 17.6507 4.07325 -50.2368
4 20.3663 1.35775 -50.2368
4 20.3663 4.07325 -52.9522
4 21.724 0 -54.31
4 21.724 2.7155 -51.5945
4 24.4395 0 -51.5945
4 24.4395 2.7155 -54.31
4 23.0817 1.35775 -52.9522
4 23.0817 4.07325 -50.2368
4 25.7973 1.35775 -50.2368
4 25.7973 4.07325 -52.9522
4 27.155 0 -54.31
4 27.155 2.7155 -51.5945
4 29.8705 0 -51.5945
4 29.8705 2.7155 -54.31
4 28.5128 1.35775 -52.9522
4 28.5128 4.07325 -50.2368
4 31.2282 1.35775 -50.2368
4 31.2282 4.07325 -52.9522
4 32.586 0 -54.31
4 32.586 2.7155 -51.5945
4 35.3015 0 -51.5945
4 35.3015 2.7155 -54.31
4 33.9438 1.35775 -52.9522
4 33.9438 4.07325 -50.2368
4 36.6593 1.35775 -50.2368
4 36.6593 4.07325 -52.9522
4 38.017 0 -54.31
4 38.017 2.7155 -51.5945
4 40.7325 0 -51.5945
4 40.7325 2.7155 -54.31
4 39.3747 1.35775 -52.9522
4 39.3747 4.07325 -50.2368
4 42.0902 1.35775 -50.2368
4 42.0902 4.07325 -52.9522
4 43.448 0 -54.31
4 43.448 2.7155 -51.5945
4 46.1635 0 -51.5945
4 46.1635 2.7155 -54.31
4 44.8058 1.35775 -52.9522
4 44.8058 4.07325 -50.2368
4 47.5213 1.35775 -50.2368
4 47.5213 4.07325 -52.9522
4 48.879 0 -54.31
4 48.879 2.7155 -51.5945
4 51.5945 0 -51.5945
4 51.5945 2.7155 -54.31
4 50.2368 1.35775 -52.9522
4 50.2368 4.07325 -50.2368
4 52.9522 1.35775 -50.2368
4 52.9522 4.07325 -52.9522
4 0 5.431 -54.31
4 0 8.1465 -51.5945
4 2.7155 5.431 -51.5945
4 2.7155 8.1465 -54.31
4 1.35775 6.78875 -52.9522
4 1.35775 9.50425 -50.2368
4 4.07325 6.78875 -50.2368
4 4.07325 9.50425 -52.9522
4 5.431 5.431 -54.31
4 5.431 8.1465 -51.5945
4 8.1465 5.431 -51.5945
4 8.1465 8.1465 -54.31
4 6.78875 6.78875 -52.9522
4 6.78875 9.50425 -50.2368
4 9.50425 6.78875 -50.2368
4 9.50425 9.50425 -52.9522
4 10.862 5.431 -54.31
4 10.862 8.1465 -51.5945
4 13.5775 5.431 -51.5945
4 13.5775 8.1465 -54.31
4 12.2197 6.78875 -52.9522
4 12.2197 9.50425 -50.2368
4 14.9352 6.78875 -50.2368
4 14.9352 9.50425 -52.9522
4 16.293 5.431 -54.31
4 16.293 8.1465 -51.5945
4 19.0085 5.431 -51.5945
4 19.0085 8.1465 -54.31
4 17.6507 6.78875 -52.9522
4 17.6507 9.50425 -50.2368
4 20.3663 6.78875 -50.2368
4 20.3663 9.50425 -52.9522
4 21.724 5.431 -54.31
4 21.724 8.1465 -51.5945
4 24.4395 5.431 -51.5945
4 24.4395 8.1465 -54.31
4 23.0817 6.78875 -52.9522
4 23.0817 9.50425 -50.2368
4 25.7973 6.78875 -50.2368
4 25.7973 9.50425 -52.9522
4 27.155 5.431 -54.31
4 27.155 8.1465 -51.5945
4 29.8705 5.431 -51.5945
4 29.8705 8.1465 -54.31
4 28.5128 6.78875 -52.9522
4 28.5128 9.50425 -50.2368
4 31.2282 6.78875 -50.2368
4 31.2282 9.50425 -52.9522
4 32.586 5.431 -54.31
4 32.586 8.1465 -51.5945
4 35.3015 5.431 -51.5945
4 35.3015 8.1465 -54.31
4 33.9438 6.78875 -52.9522
4 33.9438 9.50425 -50.2368
4 36.6593 6.78875 -50.2368
4 36.6593 9.50425 -52.9522
4 38.017 5.431 -54.31
4 38.017 8.1465 -51.5945
4 40.7325 5.431 -51.5945
4 40.7325 8.1465 -54.31
4 39.3747 6.78875 -52.9522
4 39.3747 9.50425 -50.2368
4 42.0902 6.78875 -50.2368
4 42.0902 9.50425 -52.9522
4 43.448 5.431 -54.31
4 43.448 8.1465 -51.5945
4 46.1635 5.431 -51.5945
4 46.1635 8.1465 -54.31
4 44.8058 6.78875 -52.9522
4 44.8058 9.50425 -50.2368
4 47.5213 6.78875 -50.2368
4 47.5213 9.50425 -52.9522
4 48.879 5.431 -54.31
4 48.879 8.1465 -51.5945
4 51.5945 5.431 -51.5945
4 51.5945 8.1465 -54.31
4 50.2368 6.78875 -52.9522
4 50.2368 9.50425 -50.2368
4 52.9522 6.78875 -50.2368
4 52.9522 9.50425 -52.9522
4 0 10.862 -54.31
4 0 13.5775 -51.5945
4 2.7155 10.862 -51.5945
4 2.7155 13.5775 -54.31
4 1.35775 12.2197 -52.9522
4 1.35775 14.9352 -50.2368
4 4.07325 12.2197 -50.2368
4 4.07325 14.9352 -52.9522
4 5.431 10.862 -54.31
4 5.431 13.5775 -51.5945
4 8.1465 10.862 -51.5945
4 8.1465 13.5775 -54.31
4 6.78875 12.2197 -52.9522
4 6.78875 14.9352 -50.2368
4 9.50425 12.2197 -50.2368
4 9.50425 14.9352 -52.9522
4 10.862 10.862 -54.31
4 10.862 13.5775 -51.5945
4 13.5775 10.862 -51.5945
4 13.5775 13.5775 -54.31
4 12.2197 12.2197 -52.9522
4 12.2197 14.9352 -50.2368
4 14.9352 12.2197 -50.2368
4 14.9352 14.9352 -52.9522
4 16.293 10.862 -54.31
4 16.293 13.5775 -51.5945
4 19.0085 10.862 -51.5945
4 19.0085 13.5775 -54.31
4 17.6507 12.2197 -52.9522
4 17.6507 14.9352 -50.2368
4 20.3663 12.2197 -50.2368
4 20.3663 14.9352 -52.9522
4 21.724 10.862 -54.31
4 21.724 13.5775 -51.5945
4 24.4395 10.862 -51.5945
4 24.4395 13.5775 -54.31
4 23.0817 12.2197 -52.9522
4 23.0817 14.9352 -50.2368
4 25.7973 12.2197 -50.2368
4 25.7973 14.9352 -52.9522
4 27.155 10.862 -54.31
4 27.155 13.5775 -51.5945
4 29.8705 10.862 -51.5945
4 29.8705 13.5775 -54.31
4 28.5128 12.2197 -52.9522
4 28.5128 14.9352 -50.2368
4 31.2282 12.2197 -50.2368
4 31.2282 14.9352 -52.9522
4 32.586 10.862 -54.31
4 32.586 13.5775 -51.5945
4 35.3015 10.862 -51.5945
4 35.3015 13.5775 -54.31
4 33.9438 12.2197 -52.9522
4 33.9438 14.9352 -50.2368
4 36.6593 12.2197 -50.2368
4 36.6593 14.9352 -52.9522
4 38.017 10.862 -54.31
4 38.017 13.5775 -51.5945
4 40.7325 10.862 -51.5945
4 40.7325 13.5775 -54.31
4 39.3747 12.2197 -52.9522
4 39.3747 14.9352 -50.2368
4 42.0902 12.2197 -50.2368
4 42.0902 14.9352 -52.9522
4 43.448 10.862 -54.31
4 43.448 13.5775 -51.5945
4 46.1635 10.862 -51.5945
4 46.1635 13.5775 -54.31
4 44.8058 12.2197 -52.9522
4 44.8058 14.9352 -50.2368
4 47.5213 12.2197 -50.2368
4 47.5213 14.9352 -52.9522
4 48.879 10.862 -54.31
4 48.879 13.5775 -51.5945
4 51.5945 10.862 -51.5945
4 51.5945 13.5775 -54.31
4 50.2368 12.2197 -52.9522
4 50.2368 14.9352 -50.2368
4 52.9522 12.2197 -50.2368
4 52.9522 14.9352 -52.9522
4 0 16.293 -54.31
4 0 19.0085 -51.5945
4 2.7155 16.293 -51.5945
4 2.7155 19.0085 -54.31
4 1.35775 17.6507 -52.9522
4 1.35775 20.3663 -50.2368
4 4.07325 17.6507 -50.2368
4 4.07325 20.3663 -52.9522
4 5.431 16.293 -54.31
4 5.431 19.0085 -51.5945
4 8.1465 16.293 -51.5945
4 8.1465 19.0085 -54.31
4 6.78875 17.6507 -52.9522
4 6.78875 20.3663 -50.2368
4 9.50425 17.6507 -50.2368
4 9.50425 20.3663 -52.9522
4 10.862 16.293 -54.31
4 10.862 19.0085 -51.5945
4 13.5775 16.293 -51.5945
4 13.5775 19.0085 -54.31
4 12.2197 17.6507 -52.9522
4 12.2197 20.3663 -50.2368
4 14.9352 17.6507 -50.2368
4 14.9352 20.3663 -52.9522
4 16.293 16.293 -54.31
4 16.293 19.0085 -51.5945
4 19.0085 16.293 -51.5945
4 19.0085 19.0085 -54.31
4 17.6507 17.6507 -52.9522
4 17.6507 20.3663 -50.2368
4 20.3663 17.6507 -50.2368
4 20.3663 20.3663 -52.9522
4 21.724 16.293 -54.31
4 21.724 19.0085 -51.5945
4 24.4395 16.293 -51.5945
4 24.4395 19.0085 -54.31
4 23.0817 17.6507 -52.9522
4 23.0817 20.3663 -50.2368
4 25.7973 17.6507 -50.2368
4 25.7973 20.3663 -52.9522
4 27.155 16.293 -54.31
4 27.155 19.0085 -51.5945
4 29.8705 16.293 -51.5945
4 29.8705 19.0085 -54.31
4 28.5128 17.6507 -52.9522
4 28.5128 20.3663 -50.2368
4 31.2282 17.6507 -50.2368
4 31.2282 20.3663 -52.9522
4 32.586 16.293 -54.31
4 32.586 19.0085 -51.5945
4 35.3015 16.293 -51.5945
4 35.3015 19.0085 -54.31
4 33.9438 17.6507 -52.9522
4 33.9438 20.3663 -50.2368
4 36.6593 17.6507 -50.2368
4 36.6593 20.3663 -52.9522
4 38.017 16.293 -54.31
4 38.017 19.0085 -51.5945
4 40.7325 16.293 -51.5945
4 40.7325 19.0085 -54.31
4 39.3747 17.6507 -52.9522
4 39.3747 20.3663 -50.2368
4 42.0902 17.6507 -50.2368
4 42.0902 20.3663 -52.9522
4 43.448 16.293 -54.31
4 43.448 19.0085 -51.5945
4 46.1635 16.293 -51.5945
4 46.1635 19.0085 -54.31
4 44.8058 17.6507 -52.9522
4 44.8058 20.3663 -50.2368
4 47.5213 17.6507 -50.2368
4 47.5213 20.3663 -52.9522
4 48.879 16.293 -54.31
4 48.879 19.0085 -51.5945
4 51.5945 16.293 -51.5945
4 51.5945 19.0085 -54.31
4 50.2368 17.6507 -52.9522
4 50.2368 20.3663 -50.2368
4 52.9522 17.6507 -50.2368
4 52.9522 20.3663 -52.9522
4 0 21.724 -54.31
4 0 24.4395 -51.5945
4 2.7155 21.724 -51.5945
4 2.7155 24.4395 -54.31
4 1.35775 23.0817 -52.9522
4 1.35775 25.7973 -50.2368
4 4.07325 23.0817 -50.2368
4 4.07325 25.7973 -52.9522
4 5.431 21.724 -54.31
4 5.431 24.4395 -51.5945
4 8.1465 21.724 -51.5945
4 8.1465 24.4395 -54.31
4 6.78875 23.0817 -52.9522
4 6.78875 25.7973 -50.2368
4 9.50425 23.0817 -50.2368
4 9.50425 25.7973 -52.9522
4 10.862 21.724 -54.31
4 10.862 24.4395 -51.5945
4 13.5775 21.724 -51.5945
4 13.5775 24.4395 -54.31
4 12.2197 23.0817 -52.9522
4 12.2197 25.7973 -50.2368
4 14.9352 23.0817 -50.2368
4 14.9352 25.7973 -52.9522
4 16.293 21.724 -54.31
4 16.293 24.4395 -51.5945
4 19.0085 21.724 -51.5945
4 19.0085 24.4395 -54.31
4 17.6507 23.0817 -52.9522
4 17.6507 25.7973 -50.2368
4 20.3663 23.0817 -50.2368
4 20.3663 25.7973 -52.9522
4 21.724 21.724 -54.31
4 21.724 24.4395 -51.5945
4 24.4395 21.724 -51.5945
4 24.4395 24.4395 -54.31
4 23.0817 23.0817 -52.9522
4 23.0817 25.7973 -50.2368
4 25.7973 23.0817 -50.2368
4 25.7973 25.7973 -52.9522
4 27.155 21.724 -54.31
4 27.155 24.4395 -51.5945
4 29.8705 21.724 -51.5945
4 29.8705 24.4395 -54.31
4 28.5128 23.0817 -52.9522
4 28.5128 25.7973 -50.2368
4 31.2282 23.0817 -50.2368
4 31.2282 25.7973 -52.9522
4 32.586 21.724 -54.31
4 32.586 24.4395 -51.5945
4 35.3015 21.724 -51.5945
4 35.3015 24.4395 -54.31
4 33.9438 23.0817 -52.9522
4 33.9438 25.7973 -50.2368
4 36.6593 23.0817 -50.2368
4 36.6593 25.7973 -52.9522
4 38.017 21.724 -54.31
4 38.017 24.4395 -51.5945
4 40.7325 21.724 -51.5945
4 40.7325 24.4395 -54.31
4 39.3747 23.0817 -52.9522
4 39.3747 25.7973 -50.2368
4 42.0902 23.0817 -50.2368
4 42.0902 25.7973 -52.9522
4 43.448 21.724 -54.31
4 43.448 24.4395 -51.5945
4 46.1635 21.724 -51.5945
4 46.1635 24.4395 -54.31
4 44.8058 23.0817 -52.9522
4 44.8058 25.7973 -50.2368
4 47.5213 23.0817 -50.2368
4 47.5213 25.7973 -52.9522
4 48.879 21.724 -54.31
4 48.879 24.4395 -51.5945
4 51.5945 21.724 -51.5945
4 51.5945 24.4395 -54.31
4 50.2368 23.0817 -52.9522
4 50.2368 25.7973 -50.2368
4 52.9522 23.0817 -50.2368
4 52.9522 25.7973 -52.9522
4 0 27.155 -54.31
4 0 29.8705 -51.5945
4 2.7155 27.155 -51.5945
4 2.7155 29.8705 -54.31
4 1.35775 28.5128 -52.9522
4 1.35775 31.2282 -50.2368
4 4.07325 28.5128 -50.2368
4 4.07325 31.2282 -52.9522
4 5.431 27.155 -54.31
4 5.431 29.8705 -51.5945
4 8.1465 27.155 -51.5945
4 8.1465 29.8705 -54.31
4 6.78875 28.5128 -52.9522
4 6.78875 31.2282 -50.2368
4 9.50425 28.5128 -50.2368
4 9.50425 31.2282 -52.9522
4 10.862 27.155 -54.31
4 10.862 29.8705 -51.5945
4 13.5775 27.155 -51.5945
4 13.5775 29.8705 -54.31
4 12.2197 28.5128 -52.9522
4 12.2197 31.2282 -50.2368
4 14.9352 28.5128 -50.2368
4 14.9352 31.2282 -52.9522
4 16.293 27.155 -54.31
4 16.293 29.8705 -51.5945
4 19.0085 27.155 -51.5945
4 19.0085 29.8705 -54.31
4 17.6507 28.5128 -52.9522
4 17.6507 31.2282 -50.2368
4 20.3663 28.5128 -50.2368
4 20.3663 31.2282 -52.9522
4 21.724 27.155 -54.31
4 21.724 29.8705 -51.5945
4 24.4395 27.155 -51.5945
4 24.4395 29.8705 -54.31
4 23.0817 28.5128 -52.9522
4 23.0817 31.2282 -50.2368
4 25.7973 28.5128 -50.2368
4 25.7973 31.2282 -52.9522
4 27.155 27.155 -54.31
4 27.155 29.8705 -51.5945
4 29.8705 27.155 -51.5945
4 29.8705 29.8705 -54.31
4 28.5128 28.5128 -52.9522
4 28.5128 31.2282 -50.2368
4 31.2282 28.5128 -50.2368
4 31.2282 31.2282 -52.9522
4 32.586 27.155 -54.31
4 32.586 29.8705 -51.5945
4 35.3015 27.155 -51.5945
4 35.3015 29.8705 -54.31
4 33.9438 28.5128 -52.9522
4 33.9438 31.2282 -50.2368
4 36.6593 28.5128 -50.2368
4 36.6593 31.2282 -52.9522
4 38.017 27.155 -54.31
4 38.017 29.8705 -51.5945
4 40.7325 27.155 -51.5945
4 40.7325 29.8705 -54.31
4 39.3747 28.5128 -52.9522
4 39.3747 31.2282 -50.2368
4 42.0902 28.5128 -50.2368
4 42.0902 31.2282 -52.9522
4 43.448 27.155 -54.31
4 43.448 29.8705 -51.5945
4 46.1635 27.155 -51.5945
4 46.1635 29.8705 -54.31
4 44.8058 28.5128 -52.9522
4 44.8058 31.2282 -50.2368
4 47.5213 28.5128 -50.2368
4 47.5213 31.2282 -52.9522
4 48.879 27.155 -54.31
4 48.879 29.8705 -51.5945
4 51.5945 27.155 -51.5945
4 51.5945 29.8705 -54.31
4 50.2368 28.5128 -52.9522
4 50.2368 31.2282 -50.2368
4 52.9522 28.5128 -50.2368
4 52.9522 31.2282 -52.9522
4 0 32.586 -54.31
4 0 35.3015 -51.5945
4 2.7155 32.586 -51.5945
4 2.7155 35.3015 -54.31
4 1.35775 33.9438 -52.9522
4 1.35775 36.6593 -50.2368
4 4.07325 33.9438 -50.2368
4 4.07325 36.6593 -52.9522
4 5.431 32.586 -54.31
4 5.431 35.3015 -51.5945
4 8.1465 32.586 -51.5945
4 8.1465 35.3015 -54.31
4 6.78875 33.9438 -52.9522
4 6.78875 36.6593 -50.2368
4 9.50425 33.9438 -50.2368
4 9.50425 36.6593 -52.9522
4 10.862 32.586 -54.31
4 10.862 35.3015 -51.5945
4 13.5775 32.586 -51.5945
4 13.5775 35.3015 -54.31
4 12.2197 33.9438 -52.9522
4 12.2197 36.6593 -50.2368
4 14.9352 33.9438 -50.2368
4 14.9352 36.6593 -52.9522
4 16.293 32.586 -54.31
4 16.293 35.3015 -51.5945
4 19.0085 32.586 -51.5945
4 19.0085 35.3015 -54.31
4 17.6507 33.9438 -52.9522
4 17.6507 36.6593 -50.2368
4 20.3663 33.9438 -50.2368
4 20.3663 36.6593 -52.9522
4 21.724 32.586 -54.31
4 21.724 35.3015 -51.5945
4 24.4395 32.586 -51.5945
4 24.4395 35.3015 -54.31
4 23.0817 33.9438 -52.9522
4 23.0817 36.6593 -50.2368
4 25.7973 33.9438 -50.2368
4 25.7973 36.6593 -52.9522
4 27.155 32.586 -54.31
4 27.155 35.3015 -51.5945
4 29.8705 32.586 -51.5945
4 29.8705 35.3015 -54.31
4 28.5128 33.9438 -52.9522
4 28.5128 36.6593 -50.2368
4 31.2282 33.9438 -50.2368
4 31.2282 36.6593 -52.9522
4 32.586 32.586 -54.31
4 32.586 35.3015 -51.5945
4 35.3015 32.586 -51.5945
4 35.3015 35.3015 -54.31
4 33.9438 33.9438 -52.9522
4 33.9438 36.6593 -50.2368
4 36.6593 33.9438 -50.2368
4 36.6593 36.6593 -52.9522
4 38.017 32.586 -54.31
4 38.017 35.3015 -51.5945
4 40.7325 32.586 -51.5945
4 40.7325 35.3015 -54.31
4 39.3747 33.9438 -52.9522
4 39.3747 36.6593 -50.2368
4 42.0902 33.9438 -50.2368
4 42.0902 36.6593 -52.9522
4 43.448 32.586 -54.31
4 43.448 35.3015 -51.5945
4 46.1635 32.586 -51.5945
4 46.1635 35.3015 -54.31
4 44.8058 33.9438 -52.9522
4 44.8058 36.6593 -50.2368
4 47.5213 33.9438 -50.2368
4 47.5213 36.6593 -52.9522
4 48.879 32.586 -54.31
4 48.879 35.3015 -51.5945
4 51.5945 32.586 -51.5945
4 51.5945 35.3015 -54.31
4 50.2368 33.9438 -52.9522
4 50.2368 36.6593 -50.2368
4 52.9522 33.9438 -50.2368
4 52.9522 36.6593 -52.9522
4 0 38.017 -54.31
4 0 40.7325 -51.5945
4 2.7155 38.017 -51.5945
4 2.7155 40.7325 -54.31
4 1.35775 39.3747 -52.9522
4 1.35775 42.0902 -50.2368
4 4.07325 39.3747 -50.2368
4 4.07325 42.0902 -52.9522
4 5.431 38.017 -54.31
4 5.431 40.7325 -51.5945
4 8.1465 38.017 -51.5945
4 8.1465 40.7325 -54.31
4 6.78875 39.3747 -52.9522
4 6.78875 42.0902 -50.2368
4 9.50425 39.3747 -50.2368
4 9.50425 42.0902 -52.9522
4 10.862 38.017 -54.31
4 10.862 40.7325 -51.5945
4 13.5775 38.017 -51.5945
4 13.5775 40.7325 -54.31
4 12.2197 39.3747 -52.9522
4 12.2197 42.0902 -50.2368
4 14.9352 39.3747 -50.2368
4 14.9352 42.0902 -52.9522
4 16.293 38.017 -54.31
4 16.293 40.7325 -51.5945
4 19.0085 38.017 -51.5945
4 19.0085 40.7325 -54.31
4 17.6507 39.3747 -52.9522
4 17.6507 42.0902 -50.2368
4 20.3663 39.3747 -50.2368
4 20.3663 42.0902 -52.9522
4 21.724 38.017 -54.31
4 21.724 40.7325 -51.5945
4 24.4395 38.017 -51.5945
4 24.4395 40.7325 -54.31
4 23.0817 39.3747 -52.9522
4 23.0817 42.0902 -50.2368
4 25.7973 39.3747 -50.2368
4 25.7973 42.0902 -52.9522
4 27.155 38.017 -54.31
4 27.155 40.7325 -51.5945
4 29.8705 38.017 -51.5945
4 29.8705 40.7325 -54.31
4 28.5128 39.3747 -52.9522
4 28.5128 42.0902 -50.2368
4 31.2282 39.3747 -50.2368
4 31.2282 42.0902 -52.9522
4 32.586 38.017 -54.31
4 32.586 40.7325 -51.5945
4 35.3015 38.017 -51.5945
4 35.3015 40.7325 -54.31
4 33.9438 39.3747 -52.9522
4 33.9438 42.0902 -50.2368
4 36.6593 39.3747 -50.2368
4 36.6593 42.0902 -52.9522
4 38.017 38.017 -54.31
4 38.017 40.7325 -51.5945
4 40.7325 38.017 -51.5945
4 40.7325 40.7325 -54.31
4 39.3747 39.3747 -52.9522
4 39.3747 42.0902 -50.2368
4 42.0902 39.3747 -50.2368
4 42.0902 42.0902 -52.9522
4 43.448 38.017 -54.31
4 43.448 40.7325 -51.5945
4 46.1635 38.017 -51.5945
4 46.1635 40.7325 -54.31
4 44.8058 39.3747 -52.9522
4 44.8058 42.0902 -50.2368
4 47.5213 39.3747 -50.2368
4 47.5213 42.0902 -52.9522
4 48.879 38.017 -54.31
4 48.879 40.7325 -51.5945
4 51.5945 38.017 -51.5945
4 51.5945 40.7325 -54.31
4 50.2368 39.3747 -52.9522
4 50.2368 42.0902 -50.2368
4 52.9522 39.3747 -50.2368
4 52.9522 42.0902 -52.9522
4 0 43.448 -54.31
4 0 46.1635 -51.5945
4 2.7155 43.448 -51.5945
4 2.7155 46.1635 -54.31
4 1.35775 44.8058 -52.9522
4 1.35775 47.5213 -50.2368
4 4.07325 44.8058 -50.2368
4 4.07325 47.5213 -52.9522
4 5.431 43.448 -54.31
4 5.431 46.1635 -51.5945
4 8.1465 43.448 -51.5945
4 8.1465 46.1635 -54.31
4 6.78875 44.8058 -52.9522
4 6.78875 47.5213 -50.2368
4 9.50425 44.8058 -50.2368
4 9.50425 47.5213 -52.9522
4 10.862 43.448 -54.31
4 10.862 46.1635 -51.5945
4 13.5775 43.448 -51.5945
4 13.5775 46.1635 -54.31
4 12.2197 44.8058 -52.9522
4 12.2197 47.5213 -50.2368
4 14.9352 44.8058 -50.2368
4 14.9352 47.5213 -52.9522
4 16.293 43.448 -54.31
4 16.293 46.1635 -51.5945
4 19.0085 43.448 -51.5945
4 19.0085 46.1635 -54.31
4 17.6507 44.8058 -52.9522
4 17.6507 47.5213 -50.2368
4 20.3663 44.8058 -50.2368
4 20.3663 47.5213 -52.9522
4 21.724 43.448 -54.31
4 21.724 46.1635 -51.5945
4 24.4395 43.448 -51.5945
4 24.4395 46.1635 -54.31
4 23.0817 44.8058 -52.9522
4 23.0817 47.5213 -50.2368
4 25.7973 44.8058 -50.2368
4 25.7973 47.5213 -52.9522
4 27.155 43.448 -54.31
4 27.155 46.1635 -51.5945
4 29.8705 43.448 -51.5945
4 29.8705 46.1635 -54.31
4 28.5128 44.8058 -52.9522
4 28.5128 47.5213 -50.2368
4 31.2282 44.8058 -50.2368
4 31.2282 47.5213 -52.9522
4 32.586 43.448 -54.31
4 32.586 46.1635 -51.5945
4 35.3015 43.448 -51.5945
4 35.3015 46.1635 -54.31
4 33.9438 44.8058 -52.9522
4 33.9438 47.5213 -50.2368
4 36.6593 44.8058 -50.2368
4 36.6593 47.5213 -52.9522
4 38.017 43.448 -54.31
4 38.017 46.1635 -51.5945
4 40.7325 43.448 -51.5945
4 40.7325 46.1635 -54.31
4 39.3747 44.8058 -52.9522
4 39.3747 47.5213 -50.2368
4 42.0902 44.8058 -50.2368
4 42.0902 47.5213 -52.9522
4 43.448 43.448 -54.31
4 43.448 46.1635 -51.5945
4 46.1635 43.448 -51.5945
4 46.1635 46.1635 -54.31
4 44.8058 44.8058 -52.9522
4 44.8058 47.5213 -50.2368
4 47.5213 44.8058 -50.2368
4 47.5213 47.5213 -52.9522
4 48.879 43.448 -54.31
4 48.879 46.1635 -51.5945
4 51.5945 43.448 -51.5945
4 51.5945 46.1635 -54.31
4 50.2368 44.8058 -52.9522
4 50.2368 47.5213 -50.2368
4 52.9522 44.8058 -50.2368
4 52.9522 47.5213 -52.9522
4 0 48.879 -54.31
4 0 51.5945 -51.5945
4 2.7155 48.879 -51.5945
4 2.7155 51.5945 -54.31
4 1.35775 50.2368 -52.9522
4 1.35775 52.9522 -50.2368
4 4.07325 50.2368 -50.2368
4 4.07325 52.9522 -52.9522
4 5.431 48.879 -54.31
4 5.431 51.5945 -51.5945
4 8.1465 48.879 -51.5945
4 8.1465 51.5945 -54.31
4 6.78875 50.2368 -52.9522
4 6.78875 52.9522 -50.2368
4 9.50425 50.2368 -50.2368
4 9.50425 52.9522 -52.9522
4 10.862 48.879 -54.31
4 10.862 51.5945 -51.5945
4 13.5775 48.879 -51.5945
4 13.5775 51.5945 -54.31
4 12.2197 50.2368 -52.9522
4 12.2197 52.9522 -50.2368
4 14.9352 50.2368 -50.2368
4 14.9352 52.9522 -52.9522
4 16.293 48.879 -54.31
4 16.293 51.5945 -51.5945
4 19.0085 48.879 -51.5945
4 19.0085 51.5945 -54.31
4 17.6507 50.2368 -52.9522
4 17.6507 52.9522 -50.2368
4 20.3663 50.2368 -50.2368
4 20.3663 52.9522 -52.9522
4 21.724 48.879 -54.31
4 21.724 51.5945 -51.5945
4 24.4395 48.879 -51.5945
4 24.4395 51.5945 -54.31
4 23.0817 50.2368 -52.9522
4 23.0817 52.9522 -50.2368
4 25.7973 50.2368 -50.2368
4 25.7973 52.9522 -52.9522
4 27.155 48.879 -54.31
4 27.155 51.5945 -51.5945
4 29.8705 48.879 -51.5945
4 29.8705 51.5945 -54.31
4 28.5128 50.2368 -52.9522
4 28.5128 52.9522 -50.2368
4 31.2282 50.2368 -50.2368
4 31.2282 52.9522 -52.9522
4 32.586 48.879 -54.31
4 32.586 51.5945 -51.5945
4 35.3015 48.879 -51.5945
4 35.3015 51.5945 -54.31
4 33.9438 50.2368 -52.9522
4 33.9438 52.9522 -50.2368
4 36.6593 50.2368 -50.2368
4 36.6593 52.9522 -52.9522
4 38.017 48.879 -54.31
4 38.017 51.5945 -51.5945
4 40.7325 48.879 -51.5945
4 40.7325 51.5945 -54.31
4 39.3747 50.2368 -52.9522
4 39.3747 52.9522 -50.2368
4 42.0902 50.2368 -50.2368
4 42.0902 52.9522 -52.9522
4 43.448 48.879 -54.31
4 43.448 51.5945 -51.5945
4 46.1635 48.879 -51.5945
4 46.1635 51.5945 -54.31
4 44.8058 50.2368 -52.9522
4 44.8058 52.9522 -50.2368
4 47.5213 50.2368 -50.2368
4 47.5213 52.9522 -52.9522
4 48.879 48.879 -54.31
4 48.879 51.5945 -51.5945
4 51.5945 48.879 -51.5945
4 51.5945 51.5945 -54.31
4 50.2368 50.2368 -52.9522
4 50.2368 52.9522 -50.2368
4 52.9522 50.2368 -50.2368
4 52.9522 52.9522 -52.9522
4 0 0 -48.879
3 2.58937 2.69759 -43.0001
4 2.7155 2.7155 -48.879
4 1.35775 1.35775 -47.5213
3 1.16443 6.87518 -41.5949
3 3.88337 4.12234 -41.5431
4 4.07325 4.07325 -47.5213
4 5.431 0 -48.879
3 5.32376 5.41323 -42.9484
3 7.9895 2.62329 -43.0414
4 8.1465 2.7155 -48.879
4 6.78875 1.35775 -47.5213
3 6.63535 6.91088 -41.5314
3 9.33792 4.0891 -41.6367
4 9.50425 4.07325 -47.5213
4 10.862 0 -48.879
3 10.8422 5.30173 -42.9994
3 13.5751 2.70495 -43.0444
4 13.5775 2.7155 -48.879
4 12.2197 1.35775 -47.5213
3 12.2499 6.78495 -41.5678
3 14.951 4.07843 -41.5824
4 14.9352 4.07325 -47.5213
4 16.293 0 -48.879
3 16.1942 5.49992 -42.9689
1 19.0349 2.7749 -42.9307
4 19.0085 2.7155 -48.879
4 17.6507 1.35775 -47.5213
1 17.5175 6.86411 -41.5006
1 20.2966 4.20919 -41.5351
4 20.3663 4.07325 -47.5213
4 21.724 0 -48.879
1 21.7446 5.45704 -42.8946
1 24.425 2.80426 -43.0664
4 24.4395 2.7155 -48.879
4 23.0817 1.35775 -47.5213
1 23.0646 6.84655 -41.5532
1 25.7642 4.11903 -41.5794
4 25.7973 4.07325 -47.5213
4 27.155 0 -48.879
1 27.1453 5.40539 -42.9162
1 29.8697 2.67811 -43.0351
4 29.8705 2.7155 -48.879
4 28.5128 1.35775 -47.5213
1 28.4906 6.7157 -41.6146
1 31.1778 4.13491 -41.6199
4 31.2282 4.07325 -47.5213
4 32.586 0 -48.879
1 32.621 5.44399 -43.067
1 35.264 2.73096 -43.0282
4 35.3015 2.7155 -48.879
4 33.9438 1.35775 -47.5213
1 33.9995 6.76524 -41.6131
1 36.6623 4.04577 -41.5333
4 36.6593 4.07325 -47.5213
4 38.017 0 -48.879
1 38.0439 5.36004 -42.9361
1 40.8023 2.698 -43.0612
4 40.7325 2.7155 -48.879
4 39.3747 1.35775 -47.5213
1 39.3807 6.72842 -41.4536
1 42.0455 4.13865 -41.6102
4 42.0902 4.07325 -47.5213
4 43.448 0 -48.879
1 43.4922 5.42929 -43.0094
1 46.1234 2.74878 -43.0118
4 46.1635 2.7155 -48.879
4 44.8058 1.35775 -47.5213
1 44.8094 6.83172 -41.5681
1 47.5872 3.9903 -41.512
4 47.5213 4.07325 -47.5213
4 48.879 0 -48.879
1 48.9025 5.38022 -42.9384
1 51.5645 2.7619 -42.8981
4 51.5945 2.7155 -48.879
4 50.2368 1.35775 -47.5213
1 50.2364 6.83604 -41.5066
1 52.8727 3.88107 -41.2277
4 52.9522 4.07325 -47.5213
4 0 5.431 -48.879
3 2.66971 8.15346 -43.0004
4 2.7155 8.1465 -48.879
4 1.35775 6.78875 -47.5213
3 1.27119 12.3156 -41.7211
3 3.9947 9.59288 -41.6619
4 4.07325 9.50425 -47.5213
4 5.431 5.431 -48.879
3 5.43292 10.8987 -43.0115
3 8.11313 8.10787 -42.9944
4 8.1465 8.1465 -48.879
4 6.78875 6.78875 -47.5213
3 6.68257 12.2886 -41.6094
3 9.42272 9.38896 -41.6137
4 9.50425 9.50425 -47.5213
4 10.862 5.431 -48.879
3 10.8607 10.7851 -43.008
3 13.6488 8.19187 -42.9751
4 13.5775 8.1465 -48.879
4 12.2197 6.78875 -47.5213
3 12.1089 12.2771 -41.6138
3 14.7598 9.54668 -41.5064
4 14.9352 9.50425 -47.5213
4 16.293 5.431 -48.879
3 16.2851 10.7695 -43.0137
1 18.9167 8.11648 -43.0373
4 19.0085 8.1465 -48.879
4 17.6507 6.78875 -47.5213
1 17.5347 12.1782 -41.6162
1 20.3381 9.43337 -41.6661
4 20.3663 9.50425 -47.5213
4 21.724 5.431 -48.879
1 21.7295 10.7898 -43.014
1 24.4981 8.10622 -42.9883
4 24.4395 8.1465 -48.879
4 23.0817 6.78875 -47.5213
1 22.9611 12.2989 -41.5719
1 25.8069 9.4266 -41.5963
4 25.7973 9.50425 -47.5213
4 27.155 5.431 -48.879
1 27.1605 10.8153 -43.0953
1 29.9501 8.04879 -42.9812
4 29.8705 8.1465 -48.879
4 28.5128 6.78875 -47.5213
1 28.3727 12.2267 -41.5949
1 31.2616 9.45763 -41.5992
4 31.2282 9.50425 -47.5213
4 32.586 5.431 -48.879
1 32.6039 10.8254 -43.0063
1 35.3275 8.17728 -43.0616
4 35.3015 8.1465 -48.879
4 33.9438 6.78875 -47.5213
1 33.9295 12.2805 -41.5567
1 36.6616 9.59014 -41.617
4 36.6593 9.50425 -47.5213
4 38.017 5.431 -48.879
1 38.1037 10.93 -43.0122
1 40.7351 8.11103 -42.9397
4 40.7325 8.1465 -48.879
4 39.3747 6.78875 -47.5213
1 39.3398 12.3096 -41.535
1 42.0509 9.55404 -41.4905
4 42.0902 9.50425 -47.5213
4 43.448 5.431 -48.879
1 43.3457 10.8689 -43.0045
1 46.1756 8.12343 -43.0265
4 46.1635 8.1465 -48.879
4 44.8058 6.78875 -47.5213
1 44.6032 12.2674 -41.5877
1 47.434 9.50959 -41.5258
4 47.5213 9.50425 -47.5213
4 48.879 5.431 -48.879
1 48.827 10.83 -42.9592
1 51.6535 8.1456 -42.9666
4 51.5945 8.1465 -48.879
4 50.2368 6.78875 -47.5213
1 50.2134 12.1318 -41.48
1 52.9532 9.43442 -41.4113
4 52.9522 9.50425 -47.5213
4 0 10.862 -48.879
3 2.69399 13.6145 -43.0634
4 2.7155 13.5775 -48.879
4 1.35775 12.2197 -47.5213
3 1.37163 17.9763 -41.2352
3 3.99376 14.9925 -41.6716
4 4.07325 14.9352 -47.5213
4 5.431 10.862 -48.879
3 5.33043 16.274 -43.0709
3 8.10455 13.5302 -43.0825
4 8.1465 13.5775 -48.879
4 6.78875 12.2197 -47.5213
3 6.59044 17.6191 -41.6595
3 9.3235 14.9416 -41.6119
4 9.50425 14.9352 -47.5213
4 10.862 10.862 -48.879
3 10.7238 16.2404 -43.0507
3 13.4714 13.5322 -43.073
4 13.5775 13.5775 -48.879
4 12.2197 12.2197 -47.5213
3 12.1226 17.5988 -41.5788
3 14.7835 14.8835 -41.5553
4 14.9352 14.9352 -47.5213
4 16.293 10.862 -48.879
3 16.1235 16.2401 -42.9363
1 18.961 13.5743 -42.9731
4 19.0085 13.5775 -48.879
4 17.6507 12.2197 -47.5213
1 17.5425 17.7042 -41.6811
1 20.3543 15.0339 -41.6131
4 20.3663 14.9352 -47.5213
4 21.724 10.862 -48.879
1 21.7556 16.2757 -43.0068
1 24.376 13.4919 -42.9969
4 24.4395 13.5775 -48.879
4 23.0817 12.2197 -47.5213
1 22.9993 17.7152 -41.5234
1 25.6734 14.9744 -41.6445
4 25.7973 14.9352 -47.5213
4 27.155 10.862 -48.879
1 27.1083 16.2718 -43.0103
1 29.8474 13.6053 -42.9536
4 29.8705 13.5775 -48.879
4 28.5128 12.2197 -47.5213
1 28.3729 17.5986 -41.5375
1 31.1763 14.9901 -41.559
4 31.2282 14.9352 -47.5213
4 32.586 10.862 -48.879
1 32.5539 16.2719 -43.0452
1 35.271 13.6337 -43.0484
4 35.3015 13.5775 -48.879
4 33.9438 12.2197 -47.5213
1 33.8787 17.6576 -41.4798
1 36.5645 14.9341 -41.5909
4 36.6593 14.9352 -47.5213
4 38.017 10.862 -48.879
1 37.9332 16.1895 -43.1035
1 40.7407 13.5577 -42.9671
4 40.7325 13.5775 -48.879
4 39.3747 12.2197 -47.5213
1 39.2945 17.5653 -41.714
1 41.9951 14.8904 -41.5293
4 42.0902 14.9352 -47.5213
4 43.448 10.862 -48.879
1 43.3424 16.2132 -42.9439
1 46.107 13.5486 -42.9633
4 46.1635 13.5775 -48.879
4 44.8058 12.2197 -47.5213
1 44.6392 17.626 -41.5567
1 47.4682 14.8461 -41.5165
4 47.5213 14.9352 -47.5213
4 48.879 10.862 -48.879
1 48.8268 16.2962 -43.0038
1 51.5139 13.5032 -42.9119
4 51.5945 13.5775 -48.879
4 50.2368 12.2197 -47.5213
1 50.1492 17.6027 -41.4566
1 52.822 14.8214 -41.4991
4 52.9522 14.9352 -47.5213
4 0 16.293 -48.879
3 2.59216 18.974 -43.12
4 2.7155 19.0085 -48.879
4 1.35775 17.6507 -47.5213
3 1.14515 22.3285 -42.5803
3 3.87768 20.386 -41.7533
4 4.07325 20.3663 -47.5213
4 5.431 16.293 -48.879
3 5.41386 21.6997 -43.0345
3 8.08615 18.974 -43.0837
4 8.1465 19.0085 -48.879
4 6.78875 17.6507 -47.5213
3 6.58586 23.1611 -41.5753
3 9.34951 20.3652 -41.676
4 9.50425 20.3663 -47.5213
4 10.862 16.293 -48.879
3 10.8165 21.6762 -43.0401
3 13.4379 18.9714 -42.9654
4 13.5775 19.0085 -48.879
4 12.2197 17.6507 -47.5213
3 12.1578 23.0229 -41.6389
3 14.8422 20.3449 -41.5373
4 14.9352 20.3663 -47.5213
4 16.293 16.293 -48.879
3 16.2913 21.6671 -42.9377
1 19.045 18.9727 -43.113
4 19.0085 19.0085 -48.879
4 17.6507 17.6507 -47.5213
1 17.4325 23.1742 -41.588
1 20.2099 20.2942 -41.5372
4 20.3663 20.3663 -47.5213
4 21.724 16.293 -48.879
1 21.6358 21.7571 -42.9592
1 24.496 18.9368 -42.9902
4 24.4395 19.0085 -48.879
4 23.0817 17.6507 -47.5213
1 22.97 23.1498 -41.6077
1 25.7636 20.3367 -41.6435
4 25.7973 20.3663 -47.5213
4 27.155 16.293 -48.879
1 27.0704 21.6419 -43.0613
1 29.7964 18.9525 -42.9933
4 29.8705 19.0085 -48.879
4 28.5128 17.6507 -47.5213
1 28.4013 23.0565 -41.6732
1 31.1251 20.3157 -41.5553
4 31.2282 20.3663 -47.5213
4 32.586 16.293 -48.879
1 32.5299 21.6748 -43.0809
1 35.2384 19.0013 -42.9867
4 35.3015 19.0085 -48.879
4 33.9438 17.6507 -47.5213
1 33.8229 23.1444 -41.6174
1 36.6441 20.3175 -41.551
4 36.6593 20.3663 -47.5213
4 38.017 16.293 -48.879
1 37.9571 21.6164 -42.9524
1 40.7213 18.9427 -43.0423
4 40.7325 19.0085 -48.879
4 39.3747 17.6507 -47.5213
1 39.2968 23.1165 -41.6042
1 41.9257 20.3843 -41.5513
4 42.0902 20.3663 -47.5213
4 43.448 16.293 -48.879
1 43.4285 21.7108 -43.0093
1 46.157 18.9609 -43.0082
4 46.1635 19.0085 -48.879
4 44.8058 17.6507 -47.5213
1 44.7534 23.047 -41.5184
1 47.5245 20.257 -41.4692
4 47.5213 20.3663 -47.5213
4 48.879 16.293 -48.879
1 48.8653 21.6731 -42.9195
1 51.6019 18.9636 -42.898
4 51.5945 19.0085 -48.879
4 50.2368 17.6507 -47.5213
1 50.2448 22.9284 -41.5272
1 53.0408 20.2889 -41.4371
4 52.9522 20.3663 -47.5213
4 0 21.724 -48.879
3 2.53016 24.2381 -43.0374
4 2.7155 24.4395 -48.879
4 1.35775 23.0817 -47.5213
3 1.20616 28.5087 -41.6859
3 3.85222 25.7286 -41.71
4 4.07325 25.7973 -47.5213
4 5.431 21.724 -48.879
3 5.38024 27.1668 -42.9925
3 8.17252 24.4685 -42.9733
4 8.1465 24.4395 -48.879
4 6.78875 23.0817 -47.5213
3 6.66907 28.6253 -41.4998
3 9.38258 25.9146 -41.5173
4 9.50425 25.7973 -47.5213
4 10.862 21.724 -48.879
3 10.8178 27.1859 -43.0759
3 13.5684 24.4674 -42.9281
4 13.5775 24.4395 -48.879
4 12.2197 23.0817 -47.5213
3 12.1314 28.4656 -41.5743
3 14.8568 25.8743 -41.5775
4 14.9352 25.7973 -47.5213
4 16.293 21.724 -48.879
3 16.2759 27.1479 -43.0167
1 18.9156 24.4092 -43.0173
4 19.0085 24.4395 -48.879
4 17.6507 23.0817 -47.5213
1 17.5977 28.5497 -41.5621
1 20.2055 25.8303 -41.6567
4 20.3663 25.7973 -47.5213
4 21.724 21.724 -48.879
1 21.7378 27.1624 -42.9966
1 24.3967 24.4136 -43.0936
4 24.4395 24.4395 -48.879
4 23.0817 23.0817 -47.5213
1 23.1145 28.5889 -41.6394
1 25.7585 25.7901 -41.7039
4 25.7973 25.7973 -47.5213
4 27.155 21.724 -48.879
1 27.1077 27.153 -42.987
1 29.8195 24.4459 -43.1036
4 29.8705 24.4395 -48.879
4 28.5128 23.0817 -47.5213
1 28.4737 28.5441 -41.6038
1 31.2153 25.7955 -41.6575
4 31.2282 25.7973 -47.5213
4 32.586 21.724 -48.879
1 32.5106 27.2214 -42.9907