13769
 Atoms. Timestep: 135000
4 0 0 -54.31
4 0 2.7155 -51.5945
4 2.7155 0 -51.5945
4 2.7155 2.7155 -54.31
4 1.35775 1.35775 -52.9522
4 1.35775 4.07325 -50.2368
4 4.07325 1.35775 -50.2368
4 4.07325 4.07325 -52.9522
4 5.431 0 -54.31
4 5.431 2.7155 -51.5945
4 8.1465 0 -51.5945
4 8.1465 2.7155 -54.31
4 6.78875 1.35775 -52.9522
4 6.78875 4.07325 -50.2368
4 9.50425 1.35775 -50.2368
4 9.50425 4.07325 -52.9522
4 10.862 0 -54.31
4 10.862 2.7155 -51.5945
4 13.5775 0 -51.5945
4 13.5775 2.7155 -54.31
4 12.2197 1.35775 -52.9522
4 12.2197 4.07325 -50.2368
4 14.9352 1.35775 -50.2368
4 14.9352 4.07325 -52.9522
4 16.293 0 -54.31
4 16.293 2.7155 -51.5945
4 19.0085 0 -51.5945
4 19.0085 2.7155 -54.31
4 17.6507 1.35775 -52.9522
4 17.6507 4.07325 -50.2368
4 20.3663 1.35775 -50.2368
4 20.3663 4.07325 -52.9522
4 21.724 0 -54.31
4 21.724 2.7155 -51.5945
4 24.4395 0 -51.5945
4 24.4395 2.7155 -54.31
4 23.0817 1.35775 -52.9522
4 23.0817 4.07325 -50.2368
4 25.7973 1.35775 -50.2368
4 25.7973 4.07325 -52.9522
4 27.155 0 -54.31
4 27.155 2.7155 -51.5945
4 29.8705 0 -51.5945
4 29.8705 2.7155 -54.31
4 28.5128 1.35775 -52.9522
4 28.5128 4.07325 -50.2368
4 31.2282 1.35775 -50.2368
4 31.2282 4.07325 -52.9522
4 32.586 0 -54.31
4 32.586 2.7155 -51.5945
4 35.3015 0 -51.5945
4 35.3015 2.7155 -54.31
4 33.9438 1.35775 -52.9522
4 33.9438 4.07325 -50.2368
4 36.6593 1.35775 -50.2368
4 36.6593 4.07325 -52.9522
4 38.017 0 -54.31
4 38.017 2.7155 -51.5945
4 40.7325 0 -51.5945
4 40.7325 2.7155 -54.31
4 39.3747 1.35775 -52.9522
4 39.3747 4.07325 -50.2368
4 42.0902 1.35775 -50.2368
4 42.0902 4.07325 -52.9522
4 43.448 0 -54.31
4 43.448 2.7155 -51.5945
4 46.1635 0 -51.5945
4 46.1635 2.7155 -54.31
4 44.8058 1.35775 -52.9522
4 44.8058 4.07325 -50.2368
4 47.5213 1.35775 -50.2368
4 47.5213 4.07325 -52.9522
4 48.879 0 -54.31
4 48.879 2.7155 -51.5945
4 51.5945 0 -51.5945
4 51.5945 2.7155 -54.31
4 50.2368 1.35775 -52.9522
4 50.2368 4.07325 -50.2368
4 52.9522 1.35775 -50.2368
4 52.9522 4.07325 -52.9522
4 0 5.431 -54.31
4 0 8.1465 -51.5945
4 2.7155 5.431 -51.5945
4 2.7155 8.1465 -54.31
4 1.35775 6.78875 -52.9522
4 1.35775 9.50425 -50.2368
4 4.07325 6.78875 -50.2368
4 4.07325 9.50425 -52.9522
4 5.431 5.431 -54.31
4 5.431 8.1465 -51.5945
4 8.1465 5.431 -51.5945
4 8.1465 8.1465 -54.31
4 6.78875 6.78875 -52.9522
4 6.78875 9.50425 -50.2368
4 9.50425 6.78875 -50.2368
4 9.50425 9.50425 -52.9522
4 10.862 5.431 -54.31
4 10.862 8.1465 -51.5945
4 13.5775 5.431 -51.5945
4 13.5775 8.1465 -54.31
4 12.2197 6.78875 -52.9522
4 12.2197 9.50425 -50.2368
4 14.9352 6.78875 -50.2368
4 14.9352 9.50425 -52.9522
4 16.293 5.431 -54.31
4 16.293 8.1465 -51.5945
4 19.0085 5.431 -51.5945
4 19.0085 8.1465 -54.31
4 17.6507 6.78875 -52.9522
4 17.6507 9.50425 -50.2368
4 20.3663 6.78875 -50.2368
4 20.3663 9.50425 -52.9522
4 21.724 5.431 -54.31
4 21.724 8.1465 -51.5945
4 24.4395 5.431 -51.5945
4 24.4395 8.1465 -54.31
4 23.0817 6.78875 -52.9522
4 23.0817 9.50425 -50.2368
4 25.7973 6.78875 -50.2368
4 25.7973 9.50425 -52.9522
4 27.155 5.431 -54.31
4 27.155 8.1465 -51.5945
4 29.8705 5.431 -51.5945
4 29.8705 8.1465 -54.31
4 28.5128 6.78875 -52.9522
4 28.5128 9.50425 -50.2368
4 31.2282 6.78875 -50.2368
4 31.2282 9.50425 -52.9522
4 32.586 5.431 -54.31
4 32.586 8.1465 -51.5945
4 35.3015 5.431 -51.5945
4 35.3015 8.1465 -54.31
4 33.9438 6.78875 -52.9522
4 33.9438 9.50425 -50.2368
4 36.6593 6.78875 -50.2368
4 36.6593 9.50425 -52.9522
4 38.017 5.431 -54.31
4 38.017 8.1465 -51.5945
4 40.7325 5.431 -51.5945
4 40.7325 8.1465 -54.31
4 39.3747 6.78875 -52.9522
4 39.3747 9.50425 -50.2368
4 42.0902 6.78875 -50.2368
4 42.0902 9.50425 -52.9522
4 43.448 5.431 -54.31
4 43.448 8.1465 -51.5945
4 46.1635 5.431 -51.5945
4 46.1635 8.1465 -54.31
4 44.8058 6.78875 -52.9522
4 44.8058 9.50425 -50.2368
4 47.5213 6.78875 -50.2368
4 47.5213 9.50425 -52.9522
4 48.879 5.431 -54.31
4 48.879 8.1465 -51.5945
4 51.5945 5.431 -51.5945
4 51.5945 8.1465 -54.31
4 50.2368 6.78875 -52.9522
4 50.2368 9.50425 -50.2368
4 52.9522 6.78875 -50.2368
4 52.9522 9.50425 -52.9522
4 0 10.862 -54.31
4 0 13.5775 -51.5945
4 2.7155 10.862 -51.5945
4 2.7155 13.5775 -54.31
4 1.35775 12.2197 -52.9522
4 1.35775 14.9352 -50.2368
4 4.07325 12.2197 -50.2368
4 4.07325 14.9352 -52.9522
4 5.431 10.862 -54.31
4 5.431 13.5775 -51.5945
4 8.1465 10.862 -51.5945
4 8.1465 13.5775 -54.31
4 6.78875 12.2197 -52.9522
4 6.78875 14.9352 -50.2368
4 9.50425 12.2197 -50.2368
4 9.50425 14.9352 -52.9522
4 10.862 10.862 -54.31
4 10.862 13.5775 -51.5945
4 13.5775 10.862 -51.5945
4 13.5775 13.5775 -54.31
4 12.2197 12.2197 -52.9522
4 12.2197 14.9352 -50.2368
4 14.9352 12.2197 -50.2368
4 14.9352 14.9352 -52.9522
4 16.293 10.862 -54.31
4 16.293 13.5775 -51.5945
4 19.0085 10.862 -51.5945
4 19.0085 13.5775 -54.31
4 17.6507 12.2197 -52.9522
4 17.6507 14.9352 -50.2368
4 20.3663 12.2197 -50.2368
4 20.3663 14.9352 -52.9522
4 21.724 10.862 -54.31
4 21.724 13.5775 -51.5945
4 24.4395 10.862 -51.5945
4 24.4395 13.5775 -54.31
4 23.0817 12.2197 -52.9522
4 23.0817 14.9352 -50.2368
4 25.7973 12.2197 -50.2368
4 25.7973 14.9352 -52.9522
4 27.155 10.862 -54.31
4 27.155 13.5775 -51.5945
4 29.8705 10.862 -51.5945
4 29.8705 13.5775 -54.31
4 28.5128 12.2197 -52.9522
4 28.5128 14.9352 -50.2368
4 31.2282 12.2197 -50.2368
4 31.2282 14.9352 -52.9522
4 32.586 10.862 -54.31
4 32.586 13.5775 -51.5945
4 35.3015 10.862 -51.5945
4 35.3015 13.5775 -54.31
4 33.9438 12.2197 -52.9522
4 33.9438 14.9352 -50.2368
4 36.6593 12.2197 -50.2368
4 36.6593 14.9352 -52.9522
4 38.017 10.862 -54.31
4 38.017 13.5775 -51.5945
4 40.7325 10.862 -51.5945
4 40.7325 13.5775 -54.31
4 39.3747 12.2197 -52.9522
4 39.3747 14.9352 -50.2368
4 42.0902 12.2197 -50.2368
4 42.0902 14.9352 -52.9522
4 43.448 10.862 -54.31
4 43.448 13.5775 -51.5945
4 46.1635 10.862 -51.5945
4 46.1635 13.5775 -54.31
4 44.8058 12.2197 -52.9522
4 44.8058 14.9352 -50.2368
4 47.5213 12.2197 -50.2368
4 47.5213 14.9352 -52.9522
4 48.879 10.862 -54.31
4 48.879 13.5775 -51.5945
4 51.5945 10.862 -51.5945
4 51.5945 13.5775 -54.31
4 50.2368 12.2197 -52.9522
4 50.2368 14.9352 -50.2368
4 52.9522 12.2197 -50.2368
4 52.9522 14.9352 -52.9522
4 0 16.293 -54.31
4 0 19.0085 -51.5945
4 2.7155 16.293 -51.5945
4 2.7155 19.0085 -54.31
4 1.35775 17.6507 -52.9522
4 1.35775 20.3663 -50.2368
4 4.07325 17.6507 -50.2368
4 4.07325 20.3663 -52.9522
4 5.431 16.293 -54.31
4 5.431 19.0085 -51.5945
4 8.1465 16.293 -51.5945
4 8.1465 19.0085 -54.31
4 6.78875 17.6507 -52.9522
4 6.78875 20.3663 -50.2368
4 9.50425 17.6507 -50.2368
4 9.50425 20.3663 -52.9522
4 10.862 16.293 -54.31
4 10.862 19.0085 -51.5945
4 13.5775 16.293 -51.5945
4 13.5775 19.0085 -54.31
4 12.2197 17.6507 -52.9522
4 12.2197 20.3663 -50.2368
4 14.9352 17.6507 -50.2368
4 14.9352 20.3663 -52.9522
4 16.293 16.293 -54.31
4 16.293 19.0085 -51.5945
4 19.0085 16.293 -51.5945
4 19.0085 19.0085 -54.31
4 17.6507 17.6507 -52.9522
4 17.6507 20.3663 -50.2368
4 20.3663 17.6507 -50.2368
4 20.3663 20.3663 -52.9522
4 21.724 16.293 -54.31
4 21.724 19.0085 -51.5945
4 24.4395 16.293 -51.5945
4 24.4395 19.0085 -54.31
4 23.0817 17.6507 -52.9522
4 23.0817 20.3663 -50.2368
4 25.7973 17.6507 -50.2368
4 25.7973 20.3663 -52.9522
4 27.155 16.293 -54.31
4 27.155 19.0085 -51.5945
4 29.8705 16.293 -51.5945
4 29.8705 19.0085 -54.31
4 28.5128 17.6507 -52.9522
4 28.5128 20.3663 -50.2368
4 31.2282 17.6507 -50.2368
4 31.2282 20.3663 -52.9522
4 32.586 16.293 -54.31
4 32.586 19.0085 -51.5945
4 35.3015 16.293 -51.5945
4 35.3015 19.0085 -54.31
4 33.9438 17.6507 -52.9522
4 33.9438 20.3663 -50.2368
4 36.6593 17.6507 -50.2368
4 36.6593 20.3663 -52.9522
4 38.017 16.293 -54.31
4 38.017 19.0085 -51.5945
4 40.7325 16.293 -51.5945
4 40.7325 19.0085 -54.31
4 39.3747 17.6507 -52.9522
4 39.3747 20.3663 -50.2368
4 42.0902 17.6507 -50.2368
4 42.0902 20.3663 -52.9522
4 43.448 16.293 -54.31
4 43.448 19.0085 -51.5945
4 46.1635 16.293 -51.5945
4 46.1635 19.0085 -54.31
4 44.8058 17.6507 -52.9522
4 44.8058 20.3663 -50.2368
4 47.5213 17.6507 -50.2368
4 47.5213 20.3663 -52.9522
4 48.879 16.293 -54.31
4 48.879 19.0085 -51.5945
4 51.5945 16.293 -51.5945
4 51.5945 19.0085 -54.31
4 50.2368 17.6507 -52.9522
4 50.2368 20.3663 -50.2368
4 52.9522 17.6507 -50.2368
4 52.9522 20.3663 -52.9522
4 0 21.724 -54.31
4 0 24.4395 -51.5945
4 2.7155 21.724 -51.5945
4 2.7155 24.4395 -54.31
4 1.35775 23.0817 -52.9522
4 1.35775 25.7973 -50.2368
4 4.07325 23.0817 -50.2368
4 4.07325 25.7973 -52.9522
4 5.431 21.724 -54.31
4 5.431 24.4395 -51.5945
4 8.1465 21.724 -51.5945
4 8.1465 24.4395 -54.31
4 6.78875 23.0817 -52.9522
4 6.78875 25.7973 -50.2368
4 9.50425 23.0817 -50.2368
4 9.50425 25.7973 -52.9522
4 10.862 21.724 -54.31
4 10.862 24.4395 -51.5945
4 13.5775 21.724 -51.5945
4 13.5775 24.4395 -54.31
4 12.2197 23.0817 -52.9522
4 12.2197 25.7973 -50.2368
4 14.9352 23.0817 -50.2368
4 14.9352 25.7973 -52.9522
4 16.293 21.724 -54.31
4 16.293 24.4395 -51.5945
4 19.0085 21.724 -51.5945
4 19.0085 24.4395 -54.31
4 17.6507 23.0817 -52.9522
4 17.6507 25.7973 -50.2368
4 20.3663 23.0817 -50.2368
4 20.3663 25.7973 -52.9522
4 21.724 21.724 -54.31
4 21.724 24.4395 -51.5945
4 24.4395 21.724 -51.5945
4 24.4395 24.4395 -54.31
4 23.0817 23.0817 -52.9522
4 23.0817 25.7973 -50.2368
4 25.7973 23.0817 -50.2368
4 25.7973 25.7973 -52.9522
4 27.155 21.724 -54.31
4 27.155 24.4395 -51.5945
4 29.8705 21.724 -51.5945
4 29.8705 24.4395 -54.31
4 28.5128 23.0817 -52.9522
4 28.5128 25.7973 -50.2368
4 31.2282 23.0817 -50.2368
4 31.2282 25.7973 -52.9522
4 32.586 21.724 -54.31
4 32.586 24.4395 -51.5945
4 35.3015 21.724 -51.5945
4 35.3015 24.4395 -54.31
4 33.9438 23.0817 -52.9522
4 33.9438 25.7973 -50.2368
4 36.6593 23.0817 -50.2368
4 36.6593 25.7973 -52.9522
4 38.017 21.724 -54.31
4 38.017 24.4395 -51.5945
4 40.7325 21.724 -51.5945
4 40.7325 24.4395 -54.31
4 39.3747 23.0817 -52.9522
4 39.3747 25.7973 -50.2368
4 42.0902 23.0817 -50.2368
4 42.0902 25.7973 -52.9522
4 43.448 21.724 -54.31
4 43.448 24.4395 -51.5945
4 46.1635 21.724 -51.5945
4 46.1635 24.4395 -54.31
4 44.8058 23.0817 -52.9522
4 44.8058 25.7973 -50.2368
4 47.5213 23.0817 -50.2368
4 47.5213 25.7973 -52.9522
4 48.879 21.724 -54.31
4 48.879 24.4395 -51.5945
4 51.5945 21.724 -51.5945
4 51.5945 24.4395 -54.31
4 50.2368 23.0817 -52.9522
4 50.2368 25.7973 -50.2368
4 52.9522 23.0817 -50.2368
4 52.9522 25.7973 -52.9522
4 0 27.155 -54.31
4 0 29.8705 -51.5945
4 2.7155 27.155 -51.5945
4 2.7155 29.8705 -54.31
4 1.35775 28.5128 -52.9522
4 1.35775 31.2282 -50.2368
4 4.07325 28.5128 -50.2368
4 4.07325 31.2282 -52.9522
4 5.431 27.155 -54.31
4 5.431 29.8705 -51.5945
4 8.1465 27.155 -51.5945
4 8.1465 29.8705 -54.31
4 6.78875 28.5128 -52.9522
4 6.78875 31.2282 -50.2368
4 9.50425 28.5128 -50.2368
4 9.50425 31.2282 -52.9522
4 10.862 27.155 -54.31
4 10.862 29.8705 -51.5945
4 13.5775 27.155 -51.5945
4 13.5775 29.8705 -54.31
4 12.2197 28.5128 -52.9522
4 12.2197 31.2282 -50.2368
4 14.9352 28.5128 -50.2368
4 14.9352 31.2282 -52.9522
4 16.293 27.155 -54.31
4 16.293 29.8705 -51.5945
4 19.0085 27.155 -51.5945
4 19.0085 29.8705 -54.31
4 17.6507 28.5128 -52.9522
4 17.6507 31.2282 -50.2368
4 20.3663 28.5128 -50.2368
4 20.3663 31.2282 -52.9522
4 21.724 27.155 -54.31
4 21.724 29.8705 -51.5945
4 24.4395 27.155 -51.5945
4 24.4395 29.8705 -54.31
4 23.0817 28.5128 -52.9522
4 23.0817 31.2282 -50.2368
4 25.7973 28.5128 -50.2368
4 25.7973 31.2282 -52.9522
4 27.155 27.155 -54.31
4 27.155 29.8705 -51.5945
4 29.8705 27.155 -51.5945
4 29.8705 29.8705 -54.31
4 28.5128 28.5128 -52.9522
4 28.5128 31.2282 -50.2368
4 31.2282 28.5128 -50.2368
4 31.2282 31.2282 -52.9522
4 32.586 27.155 -54.31
4 32.586 29.8705 -51.5945
4 35.3015 27.155 -51.5945
4 35.3015 29.8705 -54.31
4 33.9438 28.5128 -52.9522
4 33.9438 31.2282 -50.2368
4 36.6593 28.5128 -50.2368
4 36.6593 31.2282 -52.9522
4 38.017 27.155 -54.31
4 38.017 29.8705 -51.5945
4 40.7325 27.155 -51.5945
4 40.7325 29.8705 -54.31
4 39.3747 28.5128 -52.9522
4 39.3747 31.2282 -50.2368
4 42.0902 28.5128 -50.2368
4 42.0902 31.2282 -52.9522
4 43.448 27.155 -54.31
4 43.448 29.8705 -51.5945
4 46.1635 27.155 -51.5945
4 46.1635 29.8705 -54.31
4 44.8058 28.5128 -52.9522
4 44.8058 31.2282 -50.2368
4 47.5213 28.5128 -50.2368
4 47.5213 31.2282 -52.9522
4 48.879 27.155 -54.31
4 48.879 29.8705 -51.5945
4 51.5945 27.155 -51.5945
4 51.5945 29.8705 -54.31
4 50.2368 28.5128 -52.9522
4 50.2368 31.2282 -50.2368
4 52.9522 28.5128 -50.2368
4 52.9522 31.2282 -52.9522
4 0 32.586 -54.31
4 0 35.3015 -51.5945
4 2.7155 32.586 -51.5945
4 2.7155 35.3015 -54.31
4 1.35775 33.9438 -52.9522
4 1.35775 36.6593 -50.2368
4 4.07325 33.9438 -50.2368
4 4.07325 36.6593 -52.9522
4 5.431 32.586 -54.31
4 5.431 35.3015 -51.5945
4 8.1465 32.586 -51.5945
4 8.1465 35.3015 -54.31
4 6.78875 33.9438 -52.9522
4 6.78875 36.6593 -50.2368
4 9.50425 33.9438 -50.2368
4 9.50425 36.6593 -52.9522
4 10.862 32.586 -54.31
4 10.862 35.3015 -51.5945
4 13.5775 32.586 -51.5945
4 13.5775 35.3015 -54.31
4 12.2197 33.9438 -52.9522
4 12.2197 36.6593 -50.2368
4 14.9352 33.9438 -50.2368
4 14.9352 36.6593 -52.9522
4 16.293 32.586 -54.31
4 16.293 35.3015 -51.5945
4 19.0085 32.586 -51.5945
4 19.0085 35.3015 -54.31
4 17.6507 33.9438 -52.9522
4 17.6507 36.6593 -50.2368
4 20.3663 33.9438 -50.2368
4 20.3663 36.6593 -52.9522
4 21.724 32.586 -54.31
4 21.724 35.3015 -51.5945
4 24.4395 32.586 -51.5945
4 24.4395 35.3015 -54.31
4 23.0817 33.9438 -52.9522
4 23.0817 36.6593 -50.2368
4 25.7973 33.9438 -50.2368
4 25.7973 36.6593 -52.9522
4 27.155 32.586 -54.31
4 27.155 35.3015 -51.5945
4 29.8705 32.586 -51.5945
4 29.8705 35.3015 -54.31
4 28.5128 33.9438 -52.9522
4 28.5128 36.6593 -50.2368
4 31.2282 33.9438 -50.2368
4 31.2282 36.6593 -52.9522
4 32.586 32.586 -54.31
4 32.586 35.3015 -51.5945
4 35.3015 32.586 -51.5945
4 35.3015 35.3015 -54.31
4 33.9438 33.9438 -52.9522
4 33.9438 36.6593 -50.2368
4 36.6593 33.9438 -50.2368
4 36.6593 36.6593 -52.9522
4 38.017 32.586 -54.31
4 38.017 35.3015 -51.5945
4 40.7325 32.586 -51.5945
4 40.7325 35.3015 -54.31
4 39.3747 33.9438 -52.9522
4 39.3747 36.6593 -50.2368
4 42.0902 33.9438 -50.2368
4 42.0902 36.6593 -52.9522
4 43.448 32.586 -54.31
4 43.448 35.3015 -51.5945
4 46.1635 32.586 -51.5945
4 46.1635 35.3015 -54.31
4 44.8058 33.9438 -52.9522
4 44.8058 36.6593 -50.2368
4 47.5213 33.9438 -50.2368
4 47.5213 36.6593 -52.9522
4 48.879 32.586 -54.31
4 48.879 35.3015 -51.5945
4 51.5945 32.586 -51.5945
4 51.5945 35.3015 -54.31
4 50.2368 33.9438 -52.9522
4 50.2368 36.6593 -50.2368
4 52.9522 33.9438 -50.2368
4 52.9522 36.6593 -52.9522
4 0 38.017 -54.31
4 0 40.7325 -51.5945
4 2.7155 38.017 -51.5945
4 2.7155 40.7325 -54.31
4 1.35775 39.3747 -52.9522
4 1.35775 42.0902 -50.2368
4 4.07325 39.3747 -50.2368
4 4.07325 42.0902 -52.9522
4 5.431 38.017 -54.31
4 5.431 40.7325 -51.5945
4 8.1465 38.017 -51.5945
4 8.1465 40.7325 -54.31
4 6.78875 39.3747 -52.9522
4 6.78875 42.0902 -50.2368
4 9.50425 39.3747 -50.2368
4 9.50425 42.0902 -52.9522
4 10.862 38.017 -54.31
4 10.862 40.7325 -51.5945
4 13.5775 38.017 -51.5945
4 13.5775 40.7325 -54.31
4 12.2197 39.3747 -52.9522
4 12.2197 42.0902 -50.2368
4 14.9352 39.3747 -50.2368
4 14.9352 42.0902 -52.9522
4 16.293 38.017 -54.31
4 16.293 40.7325 -51.5945
4 19.0085 38.017 -51.5945
4 19.0085 40.7325 -54.31
4 17.6507 39.3747 -52.9522
4 17.6507 42.0902 -50.2368
4 20.3663 39.3747 -50.2368
4 20.3663 42.0902 -52.9522
4 21.724 38.017 -54.31
4 21.724 40.7325 -51.5945
4 24.4395 38.017 -51.5945
4 24.4395 40.7325 -54.31
4 23.0817 39.3747 -52.9522
4 23.0817 42.0902 -50.2368
4 25.7973 39.3747 -50.2368
4 25.7973 42.0902 -52.9522
4 27.155 38.017 -54.31
4 27.155 40.7325 -51.5945
4 29.8705 38.017 -51.5945
4 29.8705 40.7325 -54.31
4 28.5128 39.3747 -52.9522
4 28.5128 42.0902 -50.2368
4 31.2282 39.3747 -50.2368
4 31.2282 42.0902 -52.9522
4 32.586 38.017 -54.31
4 32.586 40.7325 -51.5945
4 35.3015 38.017 -51.5945
4 35.3015 40.7325 -54.31
4 33.9438 39.3747 -52.9522
4 33.9438 42.0902 -50.2368
4 36.6593 39.3747 -50.2368
4 36.6593 42.0902 -52.9522
4 38.017 38.017 -54.31
4 38.017 40.7325 -51.5945
4 40.7325 38.017 -51.5945
4 40.7325 40.7325 -54.31
4 39.3747 39.3747 -52.9522
4 39.3747 42.0902 -50.2368
4 42.0902 39.3747 -50.2368
4 42.0902 42.0902 -52.9522
4 43.448 38.017 -54.31
4 43.448 40.7325 -51.5945
4 46.1635 38.017 -51.5945
4 46.1635 40.7325 -54.31
4 44.8058 39.3747 -52.9522
4 44.8058 42.0902 -50.2368
4 47.5213 39.3747 -50.2368
4 47.5213 42.0902 -52.9522
4 48.879 38.017 -54.31
4 48.879 40.7325 -51.5945
4 51.5945 38.017 -51.5945
4 51.5945 40.7325 -54.31
4 50.2368 39.3747 -52.9522
4 50.2368 42.0902 -50.2368
4 52.9522 39.3747 -50.2368
4 52.9522 42.0902 -52.9522
4 0 43.448 -54.31
4 0 46.1635 -51.5945
4 2.7155 43.448 -51.5945
4 2.7155 46.1635 -54.31
4 1.35775 44.8058 -52.9522
4 1.35775 47.5213 -50.2368
4 4.07325 44.8058 -50.2368
4 4.07325 47.5213 -52.9522
4 5.431 43.448 -54.31
4 5.431 46.1635 -51.5945
4 8.1465 43.448 -51.5945
4 8.1465 46.1635 -54.31
4 6.78875 44.8058 -52.9522
4 6.78875 47.5213 -50.2368
4 9.50425 44.8058 -50.2368
4 9.50425 47.5213 -52.9522
4 10.862 43.448 -54.31
4 10.862 46.1635 -51.5945
4 13.5775 43.448 -51.5945
4 13.5775 46.1635 -54.31
4 12.2197 44.8058 -52.9522
4 12.2197 47.5213 -50.2368
4 14.9352 44.8058 -50.2368
4 14.9352 47.5213 -52.9522
4 16.293 43.448 -54.31
4 16.293 46.1635 -51.5945
4 19.0085 43.448 -51.5945
4 19.0085 46.1635 -54.31
4 17.6507 44.8058 -52.9522
4 17.6507 47.5213 -50.2368
4 20.3663 44.8058 -50.2368
4 20.3663 47.5213 -52.9522
4 21.724 43.448 -54.31
4 21.724 46.1635 -51.5945
4 24.4395 43.448 -51.5945
4 24.4395 46.1635 -54.31
4 23.0817 44.8058 -52.9522
4 23.0817 47.5213 -50.2368
4 25.7973 44.8058 -50.2368
4 25.7973 47.5213 -52.9522
4 27.155 43.448 -54.31
4 27.155 46.1635 -51.5945
4 29.8705 43.448 -51.5945
4 29.8705 46.1635 -54.31
4 28.5128 44.8058 -52.9522
4 28.5128 47.5213 -50.2368
4 31.2282 44.8058 -50.2368
4 31.2282 47.5213 -52.9522
4 32.586 43.448 -54.31
4 32.586 46.1635 -51.5945
4 35.3015 43.448 -51.5945
4 35.3015 46.1635 -54.31
4 33.9438 44.8058 -52.9522
4 33.9438 47.5213 -50.2368
4 36.6593 44.8058 -50.2368
4 36.6593 47.5213 -52.9522
4 38.017 43.448 -54.31
4 38.017 46.1635 -51.5945
4 40.7325 43.448 -51.5945
4 40.7325 46.1635 -54.31
4 39.3747 44.8058 -52.9522
4 39.3747 47.5213 -50.2368
4 42.0902 44.8058 -50.2368
4 42.0902 47.5213 -52.9522
4 43.448 43.448 -54.31
4 43.448 46.1635 -51.5945
4 46.1635 43.448 -51.5945
4 46.1635 46.1635 -54.31
4 44.8058 44.8058 -52.9522
4 44.8058 47.5213 -50.2368
4 47.5213 44.8058 -50.2368
4 47.5213 47.5213 -52.9522
4 48.879 43.448 -54.31
4 48.879 46.1635 -51.5945
4 51.5945 43.448 -51.5945
4 51.5945 46.1635 -54.31
4 50.2368 44.8058 -52.9522
4 50.2368 47.5213 -50.2368
4 52.9522 44.8058 -50.2368
4 52.9522 47.5213 -52.9522
4 0 48.879 -54.31
4 0 51.5945 -51.5945
4 2.7155 48.879 -51.5945
4 2.7155 51.5945 -54.31
4 1.35775 50.2368 -52.9522
4 1.35775 52.9522 -50.2368
4 4.07325 50.2368 -50.2368
4 4.07325 52.9522 -52.9522
4 5.431 48.879 -54.31
4 5.431 51.5945 -51.5945
4 8.1465 48.879 -51.5945
4 8.1465 51.5945 -54.31
4 6.78875 50.2368 -52.9522
4 6.78875 52.9522 -50.2368
4 9.50425 50.2368 -50.2368
4 9.50425 52.9522 -52.9522
4 10.862 48.879 -54.31
4 10.862 51.5945 -51.5945
4 13.5775 48.879 -51.5945
4 13.5775 51.5945 -54.31
4 12.2197 50.2368 -52.9522
4 12.2197 52.9522 -50.2368
4 14.9352 50.2368 -50.2368
4 14.9352 52.9522 -52.9522
4 16.293 48.879 -54.31
4 16.293 51.5945 -51.5945
4 19.0085 48.879 -51.5945
4 19.0085 51.5945 -54.31
4 17.6507 50.2368 -52.9522
4 17.6507 52.9522 -50.2368
4 20.3663 50.2368 -50.2368
4 20.3663 52.9522 -52.9522
4 21.724 48.879 -54.31
4 21.724 51.5945 -51.5945
4 24.4395 48.879 -51.5945
4 24.4395 51.5945 -54.31
4 23.0817 50.2368 -52.9522
4 23.0817 52.9522 -50.2368
4 25.7973 50.2368 -50.2368
4 25.7973 52.9522 -52.9522
4 27.155 48.879 -54.31
4 27.155 51.5945 -51.5945
4 29.8705 48.879 -51.5945
4 29.8705 51.5945 -54.31
4 28.5128 50.2368 -52.9522
4 28.5128 52.9522 -50.2368
4 31.2282 50.2368 -50.2368
4 31.2282 52.9522 -52.9522
4 32.586 48.879 -54.31
4 32.586 51.5945 -51.5945
4 35.3015 48.879 -51.5945
4 35.3015 51.5945 -54.31
4 33.9438 50.2368 -52.9522
4 33.9438 52.9522 -50.2368
4 36.6593 50.2368 -50.2368
4 36.6593 52.9522 -52.9522
4 38.017 48.879 -54.31
4 38.017 51.5945 -51.5945
4 40.7325 48.879 -51.5945
4 40.7325 51.5945 -54.31
4 39.3747 50.2368 -52.9522
4 39.3747 52.9522 -50.2368
4 42.0902 50.2368 -50.2368
4 42.0902 52.9522 -52.9522
4 43.448 48.879 -54.31
4 43.448 51.5945 -51.5945
4 46.1635 48.879 -51.5945
4 46.1635 51.5945 -54.31
4 44.8058 50.2368 -52.9522
4 44.8058 52.9522 -50.2368
4 47.5213 50.2368 -50.2368
4 47.5213 52.9522 -52.9522
4 48.879 48.879 -54.31
4 48.879 51.5945 -51.5945
4 51.5945 48.879 -51.5945
4 51.5945 51.5945 -54.31
4 50.2368 50.2368 -52.9522
4 50.2368 52.9522 -50.2368
4 52.9522 50.2368 -50.2368
4 52.9522 52.9522 -52.9522
4 0 0 -48.879
3 2.57741 2.63526 -20.6311
4 2.7155 2.7155 -48.879
4 1.35775 1.35775 -47.5213
3 1.14799 5.81071 -20.1275
3 4.08023 3.86262 -19.3786
4 4.07325 4.07325 -47.5213
4 5.431 0 -48.879
3 5.42899 5.34006 -20.6088
3 8.10698 2.70981 -20.5089
4 8.1465 2.7155 -48.879
4 6.78875 1.35775 -47.5213
3 6.69011 6.76393 -19.297
3 9.52396 4.03886 -19.199
4 9.50425 4.07325 -47.5213
4 10.862 0 -48.879
3 10.8186 5.40866 -20.6128
3 13.5518 2.66919 -20.6317
4 13.5775 2.7155 -48.879
4 12.2197 1.35775 -47.5213
3 12.1231 6.79435 -19.2321
3 14.8934 4.03936 -19.1747
4 14.9352 4.07325 -47.5213
4 16.293 0 -48.879
3 16.2944 5.47027 -20.569
1 19.0243 2.74072 -20.6352
4 19.0085 2.7155 -48.879
4 17.6507 1.35775 -47.5213
1 17.6858 6.82076 -19.2633
1 20.4251 4.09038 -19.2832
4 20.3663 4.07325 -47.5213
4 21.724 0 -48.879
1 21.8543 5.51593 -20.5614
1 24.4834 2.7031 -20.6303
4 24.4395 2.7155 -48.879
4 23.0817 1.35775 -47.5213
1 23.2375 6.87063 -19.2642
1 25.9479 4.01606 -19.359
4 25.7973 4.07325 -47.5213
4 27.155 0 -48.879
1 27.1765 5.50453 -20.6754
1 29.9167 2.6845 -20.5912
4 29.8705 2.7155 -48.879
4 28.5128 1.35775 -47.5213
1 28.5333 6.81774 -19.3367
1 31.3206 4.12784 -19.3343
4 31.2282 4.07325 -47.5213
4 32.586 0 -48.879
1 32.6107 5.46022 -20.6796
1 35.2753 2.76577 -20.5994
4 35.3015 2.7155 -48.879
4 33.9438 1.35775 -47.5213
1 33.9669 6.80388 -19.4414
1 36.7137 4.0686 -19.3338
4 36.6593 4.07325 -47.5213
4 38.017 0 -48.879
1 38.0755 5.41379 -20.5601
1 40.8612 2.73346 -20.5234
4 40.7325 2.7155 -48.879
4 39.3747 1.35775 -47.5213
1 39.6215 6.77296 -19.3764
1 42.3224 4.06326 -19.2496
4 42.0902 4.07325 -47.5213
4 43.448 0 -48.879
1 43.5429 5.47633 -20.586
1 46.3352 2.84 -20.6503
4 46.1635 2.7155 -48.879
4 44.8058 1.35775 -47.5213
1 45.1074 6.74952 -19.4297
1 47.9138 4.01347 -19.4734
4 47.5213 4.07325 -47.5213
4 48.879 0 -48.879
1 49.038 5.56542 -20.7597
1 51.8725 2.92978 -20.6876
4 51.5945 2.7155 -48.879
4 50.2368 1.35775 -47.5213
1 50.8582 6.662 -19.5835
1 53.7511 3.84754 -19.6475
4 52.9522 4.07325 -47.5213
4 0 5.431 -48.879
3 2.5608 7.85387 -20.5971
4 2.7155 8.1465 -48.879
4 1.35775 6.78875 -47.5213
3 1.2847 11.3568 -20.078
3 3.9073 9.32934 -19.323
4 4.07325 9.50425 -47.5213
4 5.431 5.431 -48.879
3 5.32562 10.8067 -20.54
3 8.0371 8.06866 -20.6379
4 8.1465 8.1465 -48.879
4 6.78875 6.78875 -47.5213
3 6.706 12.2468 -19.3304
3 9.43721 9.44772 -19.344
4 9.50425 9.50425 -47.5213
4 10.862 5.431 -48.879
3 10.872 10.8661 -20.5954
3 13.6132 8.08296 -20.5273
4 13.5775 8.1465 -48.879
4 12.2197 6.78875 -47.5213
3 12.2079 12.2331 -19.2238
3 14.9781 9.42246 -19.2364
4 14.9352 9.50425 -47.5213
4 16.293 5.431 -48.879
3 16.3073 10.8698 -20.528
1 19.033 8.24026 -20.5297
4 19.0085 8.1465 -48.879
4 17.6507 6.78875 -47.5213
1 17.602 12.2136 -19.0945
1 20.4381 9.53606 -19.1704
4 20.3663 9.50425 -47.5213
4 21.724 5.431 -48.879
1 21.7129 10.8583 -20.5814
1 24.5455 8.16785 -20.6778
4 24.4395 8.1465 -48.879
4 23.0817 6.78875 -47.5213
1 23.1072 12.2166 -19.304
1 25.8584 9.60511 -19.3772
4 25.7973 9.50425 -47.5213
4 27.155 5.431 -48.879
1 27.2387 10.9512 -20.6635
1 29.9375 8.18003 -20.6295
4 29.8705 8.1465 -48.879
4 28.5128 6.78875 -47.5213
1 28.5293 12.362 -19.3143
1 31.2249 9.56489 -19.2965
4 31.2282 9.50425 -47.5213
4 32.586 5.431 -48.879
1 32.6152 10.8398 -20.6325
1 35.3446 8.24175 -20.6322
4 35.3015 8.1465 -48.879
4 33.9438 6.78875 -47.5213
1 33.9594 12.2541 -19.3442
1 36.714 9.60344 -19.3171
4 36.6593 9.50425 -47.5213
4 38.017 5.431 -48.879
1 38.0325 10.8385 -20.5948
1 40.7967 8.1713 -20.7721
4 40.7325 8.1465 -48.879
4 39.3747 6.78875 -47.5213
1 39.3709 12.2327 -19.2893
1 42.2018 9.47831 -19.3504
4 42.0902 9.50425 -47.5213
4 43.448 5.431 -48.879
1 43.5304 10.9124 -20.577
1 46.3775 8.30531 -20.6347
4 46.1635 8.1465 -48.879
4 44.8058 6.78875 -47.5213
1 44.9866 12.27 -19.375
1 47.9773 9.55575 -19.5009
4 47.5213 9.50425 -47.5213
4 48.879 5.431 -48.879
1 49.1481 11.0884 -20.7507
1 51.9659 8.46654 -20.7276
4 51.5945 8.1465 -48.879
4 50.2368 6.78875 -47.5213
1 50.6713 12.3626 -19.5548
1 53.4612 10.3508 -20.3222
4 52.9522 9.50425 -47.5213
4 0 10.862 -48.879
3 2.50604 13.3107 -20.5975
4 2.7155 13.5775 -48.879
4 1.35775 12.2197 -47.5213
3 1.33633 17.9894 -18.8073
3 3.93893 14.829 -19.3337
4 4.07325 14.9352 -47.5213
4 5.431 10.862 -48.879
3 5.32279 16.2033 -20.5908
3 8.1773 13.6029 -20.6146
4 8.1465 13.5775 -48.879
4 6.78875 12.2197 -47.5213
3 6.59189 17.5544 -19.2414
3 9.48758 15.0025 -19.316
4 9.50425 14.9352 -47.5213
4 10.862 10.862 -48.879
3 10.9149 16.2767 -20.6103
3 13.5326 13.6014 -20.5032
4 13.5775 13.5775 -48.879
4 12.2197 12.2197 -47.5213
3 12.1855 17.6538 -19.1887
3 14.94 14.904 -19.2034
4 14.9352 14.9352 -47.5213
4 16.293 10.862 -48.879
3 16.2605 16.3029 -20.4421
1 18.9727 13.5325 -20.4775
4 19.0085 13.5775 -48.879
4 17.6507 12.2197 -47.5213
1 17.7212 17.6522 -19.2918
1 20.334 14.9334 -19.1987
4 20.3663 14.9352 -47.5213
4 21.724 10.862 -48.879
1 21.8175 16.3525 -20.5184
1 24.4491 13.6013 -20.6318
4 24.4395 13.5775 -48.879
4 23.0817 12.2197 -47.5213
1 23.1164 17.7654 -19.1968
1 25.812 15.0951 -19.3743
4 25.7973 14.9352 -47.5213
4 27.155 10.862 -48.879
1 27.2529 16.3905 -20.604
1 29.9315 13.6735 -20.6028
4 29.8705 13.5775 -48.879
4 28.5128 12.2197 -47.5213
1 28.6638 17.7702 -19.3135
1 31.2935 15.1033 -19.402
4 31.2282 14.9352 -47.5213
4 32.586 10.862 -48.879
1 32.7396 16.3991 -20.7183
1 35.4054 13.6147 -20.639
4 35.3015 13.5775 -48.879
4 33.9438 12.2197 -47.5213
1 33.9842 17.6822 -19.2974
1 36.7686 15.0097 -19.342
4 36.6593 14.9352 -47.5213
4 38.017 10.862 -48.879
1 38.1259 16.4018 -20.6776
1 40.7049 13.5093 -20.6539
4 40.7325 13.5775 -48.879
4 39.3747 12.2197 -47.5213
1 39.5674 17.6457 -19.3567
1 42.1934 14.9164 -19.3219
4 42.0902 14.9352 -47.5213
4 43.448 10.862 -48.879
1 43.5474 16.3358 -20.6292
1 46.3569 13.6268 -20.6066
4 46.1635 13.5775 -48.879
4 44.8058 12.2197 -47.5213
1 44.9401 17.7344 -19.4913
1 47.8426 15.0408 -19.4602
4 47.5213 14.9352 -47.5213
4 48.879 10.862 -48.879
1 49.0264 16.526 -20.5884
1 51.9943 13.9571 -20.7439
4 51.5945 13.5775 -48.879
4 50.2368 12.2197 -47.5213
1 50.7255 17.8116 -19.5355
1 53.4087 15.8856 -20.4061
4 52.9522 14.9352 -47.5213
4 0 16.293 -48.879
3 2.68592 18.9264 -20.5552
4 2.7155 19.0085 -48.879
4 1.35775 17.6507 -47.5213
3 1.21229 22.2303 -20.1362
3 4.00878 20.2796 -19.1538
4 4.07325 20.3663 -47.5213
4 5.431 16.293 -48.879
3 5.38811 21.6505 -20.5367
3 8.05748 18.859 -20.5695
4 8.1465 19.0085 -48.879
4 6.78875 17.6507 -47.5213
3 6.66998 23.0176 -19.1899
3 9.28305 20.365 -19.2608
4 9.50425 20.3663 -47.5213
4 10.862 16.293 -48.879
3 10.7961 21.6768 -20.5643
3 13.5579 19.033 -20.5618
4 13.5775 19.0085 -48.879
4 12.2197 17.6507 -47.5213
3 12.1401 23.0755 -19.2789
3 15.0181 20.3793 -19.2548
4 14.9352 20.3663 -47.5213
4 16.293 16.293 -48.879
3 16.3243 21.7929 -20.61
1 19.0646 19.0875 -20.5829
4 19.0085 19.0085 -48.879
4 17.6507 17.6507 -47.5213
1 17.7019 23.1128 -19.2041
1 20.4214 20.4898 -19.2052
4 20.3663 20.3663 -47.5213
4 21.724 16.293 -48.879
1 21.8263 21.8646 -20.5456
1 24.537 19.0464 -20.5184
4 24.4395 19.0085 -48.879
4 23.0817 17.6507 -47.5213
1 23.1142 23.2304 -19.1931
1 25.8734 20.4099 -19.2206
4 25.7973 20.3663 -47.5213
4 27.155 16.293 -48.879
1 27.1791 21.7271 -20.6128
1 29.9969 19.1514 -20.6363
4 29.8705 19.0085 -48.879
4 28.5128 17.6507 -47.5213
1 28.4995 23.1058 -19.2842
1 31.3227 20.4968 -19.3027
4 31.2282 20.3663 -47.5213
4 32.586 16.293 -48.879
1 32.7266 21.8547 -20.6524
1 35.3339 19.0396 -20.5596
4 35.3015 19.0085 -48.879
4 33.9438 17.6507 -47.5213
1 34.0855 23.1788 -19.2427
1 36.7561 20.4449 -19.4392
4 36.6593 20.3663 -47.5213
4 38.017 16.293 -48.879
1 38.1168 21.8059 -20.6908
1 40.7766 19.0985 -20.6498
4 40.7325 19.0085 -48.879
4 39.3747 17.6507 -47.5213
1 39.5597 23.1327 -19.3867
1 42.1806 20.3401 -19.423
4 42.0902 20.3663 -47.5213
4 43.448 16.293 -48.879
1 43.5038 21.7789 -20.7146
1 46.2629 19.0403 -20.6876
4 46.1635 19.0085 -48.879
4 44.8058 17.6507 -47.5213
1 45.0654 23.0959 -19.4957
1 47.763 20.4039 -19.489
4 47.5213 20.3663 -47.5213
4 48.879 16.293 -48.879
1 49.0939 21.9193 -20.6645
1 52.0189 19.3869 -20.6884
4 51.5945 19.0085 -48.879
4 50.2368 17.6507 -47.5213
1 50.7028 23.3726 -19.6426
1 53.4936 21.3389 -20.3412
4 52.9522 20.3663 -47.5213
4 0 21.724 -48.879
3 2.59794 24.3081 -20.5496
4 2.7155 24.4395 -48.879
4 1.35775 23.0817 -47.5213
3 1.33343 28.9231 -18.8345
3 3.89107 25.7506 -19.1717
4 4.07325 25.7973 -47.5213
4 5.431 21.724 -48.879
3 5.41075 27.1435 -20.5857
3 8.12846 24.4142 -20.577
4 8.1465 24.4395 -48.879
4 6.78875 23.0817 -47.5213
3 6.70602 28.4907 -19.2438
3 9.36685 25.834 -19.2014
4 9.50425 25.7973 -47.5213
4 10.862 21.724 -48.879
3 10.8163 27.0863 -20.6125
3 13.573 24.3763 -20.6129
4 13.5775 24.4395 -48.879
4 12.2197 23.0817 -47.5213
3 12.1246 28.5125 -19.2038
3 14.9096 25.7743 -19.2233
4 14.9352 25.7973 -47.5213
4 16.293 21.724 -48.879
3 16.2875 27.1725 -20.573
1 19.0513 24.4465 -20.6546
4 19.0085 24.4395 -48.879
4 17.6507 23.0817 -47.5213
1 17.6982 28.491 -19.264
1 20.3729 25.846 -19.3519
4 20.3663 25.7973 -47.5213
4 21.724 21.724 -48.879
1 21.7324 27.1903 -20.6579
1 24.4229 24.4583 -20.579
4 24.4395 24.4395 -48.879
4 23.0817 23.0817 -47.5213
1 23.0874 28.5974 -19.1807
1 25.7896 25.8105 -19.2176
4 25.7973 25.7973 -47.5213
4 27.155 21.724 -48.879
1 27.2063 27.1393 -20.5204
1 29.8758 24.4179 -20.626
4 29.8705 24.4395 -48.879
4 28.5128 23.0817 -47.5213
1 28.5326 28.5703 -19.2646
1 31.2173 25.7581 -19.1671
4 31.2282 25.7973 -47.5213
4 32.586 21.724 -48.879
1 32.565 27.1297 -20.5894