15353
 Atoms. Timestep: 35000
4 0 0 -54.31
4 0 2.7155 -51.5945
4 2.7155 0 -51.5945
4 2.7155 2.7155 -54.31
4 1.35775 1.35775 -52.9522
4 1.35775 4.07325 -50.2368
4 4.07325 1.35775 -50.2368
4 4.07325 4.07325 -52.9522
4 5.431 0 -54.31
4 5.431 2.7155 -51.5945
4 8.1465 0 -51.5945
4 8.1465 2.7155 -54.31
4 6.78875 1.35775 -52.9522
4 6.78875 4.07325 -50.2368
4 9.50425 1.35775 -50.2368
4 9.50425 4.07325 -52.9522
4 10.862 0 -54.31
4 10.862 2.7155 -51.5945
4 13.5775 0 -51.5945
4 13.5775 2.7155 -54.31
4 12.2197 1.35775 -52.9522
4 12.2197 4.07325 -50.2368
4 14.9352 1.35775 -50.2368
4 14.9352 4.07325 -52.9522
4 16.293 0 -54.31
4 16.293 2.7155 -51.5945
4 19.0085 0 -51.5945
4 19.0085 2.7155 -54.31
4 17.6507 1.35775 -52.9522
4 17.6507 4.07325 -50.2368
4 20.3663 1.35775 -50.2368
4 20.3663 4.07325 -52.9522
4 21.724 0 -54.31
4 21.724 2.7155 -51.5945
4 24.4395 0 -51.5945
4 24.4395 2.7155 -54.31
4 23.0817 1.35775 -52.9522
4 23.0817 4.07325 -50.2368
4 25.7973 1.35775 -50.2368
4 25.7973 4.07325 -52.9522
4 27.155 0 -54.31
4 27.155 2.7155 -51.5945
4 29.8705 0 -51.5945
4 29.8705 2.7155 -54.31
4 28.5128 1.35775 -52.9522
4 28.5128 4.07325 -50.2368
4 31.2282 1.35775 -50.2368
4 31.2282 4.07325 -52.9522
4 32.586 0 -54.31
4 32.586 2.7155 -51.5945
4 35.3015 0 -51.5945
4 35.3015 2.7155 -54.31
4 33.9438 1.35775 -52.9522
4 33.9438 4.07325 -50.2368
4 36.6593 1.35775 -50.2368
4 36.6593 4.07325 -52.9522
4 38.017 0 -54.31
4 38.017 2.7155 -51.5945
4 40.7325 0 -51.5945
4 40.7325 2.7155 -54.31
4 39.3747 1.35775 -52.9522
4 39.3747 4.07325 -50.2368
4 42.0902 1.35775 -50.2368
4 42.0902 4.07325 -52.9522
4 43.448 0 -54.31
4 43.448 2.7155 -51.5945
4 46.1635 0 -51.5945
4 46.1635 2.7155 -54.31
4 44.8058 1.35775 -52.9522
4 44.8058 4.07325 -50.2368
4 47.5213 1.35775 -50.2368
4 47.5213 4.07325 -52.9522
4 48.879 0 -54.31
4 48.879 2.7155 -51.5945
4 51.5945 0 -51.5945
4 51.5945 2.7155 -54.31
4 50.2368 1.35775 -52.9522
4 50.2368 4.07325 -50.2368
4 52.9522 1.35775 -50.2368
4 52.9522 4.07325 -52.9522
4 0 5.431 -54.31
4 0 8.1465 -51.5945
4 2.7155 5.431 -51.5945
4 2.7155 8.1465 -54.31
4 1.35775 6.78875 -52.9522
4 1.35775 9.50425 -50.2368
4 4.07325 6.78875 -50.2368
4 4.07325 9.50425 -52.9522
4 5.431 5.431 -54.31
4 5.431 8.1465 -51.5945
4 8.1465 5.431 -51.5945
4 8.1465 8.1465 -54.31
4 6.78875 6.78875 -52.9522
4 6.78875 9.50425 -50.2368
4 9.50425 6.78875 -50.2368
4 9.50425 9.50425 -52.9522
4 10.862 5.431 -54.31
4 10.862 8.1465 -51.5945
4 13.5775 5.431 -51.5945
4 13.5775 8.1465 -54.31
4 12.2197 6.78875 -52.9522
4 12.2197 9.50425 -50.2368
4 14.9352 6.78875 -50.2368
4 14.9352 9.50425 -52.9522
4 16.293 5.431 -54.31
4 16.293 8.1465 -51.5945
4 19.0085 5.431 -51.5945
4 19.0085 8.1465 -54.31
4 17.6507 6.78875 -52.9522
4 17.6507 9.50425 -50.2368
4 20.3663 6.78875 -50.2368
4 20.3663 9.50425 -52.9522
4 21.724 5.431 -54.31
4 21.724 8.1465 -51.5945
4 24.4395 5.431 -51.5945
4 24.4395 8.1465 -54.31
4 23.0817 6.78875 -52.9522
4 23.0817 9.50425 -50.2368
4 25.7973 6.78875 -50.2368
4 25.7973 9.50425 -52.9522
4 27.155 5.431 -54.31
4 27.155 8.1465 -51.5945
4 29.8705 5.431 -51.5945
4 29.8705 8.1465 -54.31
4 28.5128 6.78875 -52.9522
4 28.5128 9.50425 -50.2368
4 31.2282 6.78875 -50.2368
4 31.2282 9.50425 -52.9522
4 32.586 5.431 -54.31
4 32.586 8.1465 -51.5945
4 35.3015 5.431 -51.5945
4 35.3015 8.1465 -54.31
4 33.9438 6.78875 -52.9522
4 33.9438 9.50425 -50.2368
4 36.6593 6.78875 -50.2368
4 36.6593 9.50425 -52.9522
4 38.017 5.431 -54.31
4 38.017 8.1465 -51.5945
4 40.7325 5.431 -51.5945
4 40.7325 8.1465 -54.31
4 39.3747 6.78875 -52.9522
4 39.3747 9.50425 -50.2368
4 42.0902 6.78875 -50.2368
4 42.0902 9.50425 -52.9522
4 43.448 5.431 -54.31
4 43.448 8.1465 -51.5945
4 46.1635 5.431 -51.5945
4 46.1635 8.1465 -54.31
4 44.8058 6.78875 -52.9522
4 44.8058 9.50425 -50.2368
4 47.5213 6.78875 -50.2368
4 47.5213 9.50425 -52.9522
4 48.879 5.431 -54.31
4 48.879 8.1465 -51.5945
4 51.5945 5.431 -51.5945
4 51.5945 8.1465 -54.31
4 50.2368 6.78875 -52.9522
4 50.2368 9.50425 -50.2368
4 52.9522 6.78875 -50.2368
4 52.9522 9.50425 -52.9522
4 0 10.862 -54.31
4 0 13.5775 -51.5945
4 2.7155 10.862 -51.5945
4 2.7155 13.5775 -54.31
4 1.35775 12.2197 -52.9522
4 1.35775 14.9352 -50.2368
4 4.07325 12.2197 -50.2368
4 4.07325 14.9352 -52.9522
4 5.431 10.862 -54.31
4 5.431 13.5775 -51.5945
4 8.1465 10.862 -51.5945
4 8.1465 13.5775 -54.31
4 6.78875 12.2197 -52.9522
4 6.78875 14.9352 -50.2368
4 9.50425 12.2197 -50.2368
4 9.50425 14.9352 -52.9522
4 10.862 10.862 -54.31
4 10.862 13.5775 -51.5945
4 13.5775 10.862 -51.5945
4 13.5775 13.5775 -54.31
4 12.2197 12.2197 -52.9522
4 12.2197 14.9352 -50.2368
4 14.9352 12.2197 -50.2368
4 14.9352 14.9352 -52.9522
4 16.293 10.862 -54.31
4 16.293 13.5775 -51.5945
4 19.0085 10.862 -51.5945
4 19.0085 13.5775 -54.31
4 17.6507 12.2197 -52.9522
4 17.6507 14.9352 -50.2368
4 20.3663 12.2197 -50.2368
4 20.3663 14.9352 -52.9522
4 21.724 10.862 -54.31
4 21.724 13.5775 -51.5945
4 24.4395 10.862 -51.5945
4 24.4395 13.5775 -54.31
4 23.0817 12.2197 -52.9522
4 23.0817 14.9352 -50.2368
4 25.7973 12.2197 -50.2368
4 25.7973 14.9352 -52.9522
4 27.155 10.862 -54.31
4 27.155 13.5775 -51.5945
4 29.8705 10.862 -51.5945
4 29.8705 13.5775 -54.31
4 28.5128 12.2197 -52.9522
4 28.5128 14.9352 -50.2368
4 31.2282 12.2197 -50.2368
4 31.2282 14.9352 -52.9522
4 32.586 10.862 -54.31
4 32.586 13.5775 -51.5945
4 35.3015 10.862 -51.5945
4 35.3015 13.5775 -54.31
4 33.9438 12.2197 -52.9522
4 33.9438 14.9352 -50.2368
4 36.6593 12.2197 -50.2368
4 36.6593 14.9352 -52.9522
4 38.017 10.862 -54.31
4 38.017 13.5775 -51.5945
4 40.7325 10.862 -51.5945
4 40.7325 13.5775 -54.31
4 39.3747 12.2197 -52.9522
4 39.3747 14.9352 -50.2368
4 42.0902 12.2197 -50.2368
4 42.0902 14.9352 -52.9522
4 43.448 10.862 -54.31
4 43.448 13.5775 -51.5945
4 46.1635 10.862 -51.5945
4 46.1635 13.5775 -54.31
4 44.8058 12.2197 -52.9522
4 44.8058 14.9352 -50.2368
4 47.5213 12.2197 -50.2368
4 47.5213 14.9352 -52.9522
4 48.879 10.862 -54.31
4 48.879 13.5775 -51.5945
4 51.5945 10.862 -51.5945
4 51.5945 13.5775 -54.31
4 50.2368 12.2197 -52.9522
4 50.2368 14.9352 -50.2368
4 52.9522 12.2197 -50.2368
4 52.9522 14.9352 -52.9522
4 0 16.293 -54.31
4 0 19.0085 -51.5945
4 2.7155 16.293 -51.5945
4 2.7155 19.0085 -54.31
4 1.35775 17.6507 -52.9522
4 1.35775 20.3663 -50.2368
4 4.07325 17.6507 -50.2368
4 4.07325 20.3663 -52.9522
4 5.431 16.293 -54.31
4 5.431 19.0085 -51.5945
4 8.1465 16.293 -51.5945
4 8.1465 19.0085 -54.31
4 6.78875 17.6507 -52.9522
4 6.78875 20.3663 -50.2368
4 9.50425 17.6507 -50.2368
4 9.50425 20.3663 -52.9522
4 10.862 16.293 -54.31
4 10.862 19.0085 -51.5945
4 13.5775 16.293 -51.5945
4 13.5775 19.0085 -54.31
4 12.2197 17.6507 -52.9522
4 12.2197 20.3663 -50.2368
4 14.9352 17.6507 -50.2368
4 14.9352 20.3663 -52.9522
4 16.293 16.293 -54.31
4 16.293 19.0085 -51.5945
4 19.0085 16.293 -51.5945
4 19.0085 19.0085 -54.31
4 17.6507 17.6507 -52.9522
4 17.6507 20.3663 -50.2368
4 20.3663 17.6507 -50.2368
4 20.3663 20.3663 -52.9522
4 21.724 16.293 -54.31
4 21.724 19.0085 -51.5945
4 24.4395 16.293 -51.5945
4 24.4395 19.0085 -54.31
4 23.0817 17.6507 -52.9522
4 23.0817 20.3663 -50.2368
4 25.7973 17.6507 -50.2368
4 25.7973 20.3663 -52.9522
4 27.155 16.293 -54.31
4 27.155 19.0085 -51.5945
4 29.8705 16.293 -51.5945
4 29.8705 19.0085 -54.31
4 28.5128 17.6507 -52.9522
4 28.5128 20.3663 -50.2368
4 31.2282 17.6507 -50.2368
4 31.2282 20.3663 -52.9522
4 32.586 16.293 -54.31
4 32.586 19.0085 -51.5945
4 35.3015 16.293 -51.5945
4 35.3015 19.0085 -54.31
4 33.9438 17.6507 -52.9522
4 33.9438 20.3663 -50.2368
4 36.6593 17.6507 -50.2368
4 36.6593 20.3663 -52.9522
4 38.017 16.293 -54.31
4 38.017 19.0085 -51.5945
4 40.7325 16.293 -51.5945
4 40.7325 19.0085 -54.31
4 39.3747 17.6507 -52.9522
4 39.3747 20.3663 -50.2368
4 42.0902 17.6507 -50.2368
4 42.0902 20.3663 -52.9522
4 43.448 16.293 -54.31
4 43.448 19.0085 -51.5945
4 46.1635 16.293 -51.5945
4 46.1635 19.0085 -54.31
4 44.8058 17.6507 -52.9522
4 44.8058 20.3663 -50.2368
4 47.5213 17.6507 -50.2368
4 47.5213 20.3663 -52.9522
4 48.879 16.293 -54.31
4 48.879 19.0085 -51.5945
4 51.5945 16.293 -51.5945
4 51.5945 19.0085 -54.31
4 50.2368 17.6507 -52.9522
4 50.2368 20.3663 -50.2368
4 52.9522 17.6507 -50.2368
4 52.9522 20.3663 -52.9522
4 0 21.724 -54.31
4 0 24.4395 -51.5945
4 2.7155 21.724 -51.5945
4 2.7155 24.4395 -54.31
4 1.35775 23.0817 -52.9522
4 1.35775 25.7973 -50.2368
4 4.07325 23.0817 -50.2368
4 4.07325 25.7973 -52.9522
4 5.431 21.724 -54.31
4 5.431 24.4395 -51.5945
4 8.1465 21.724 -51.5945
4 8.1465 24.4395 -54.31
4 6.78875 23.0817 -52.9522
4 6.78875 25.7973 -50.2368
4 9.50425 23.0817 -50.2368
4 9.50425 25.7973 -52.9522
4 10.862 21.724 -54.31
4 10.862 24.4395 -51.5945
4 13.5775 21.724 -51.5945
4 13.5775 24.4395 -54.31
4 12.2197 23.0817 -52.9522
4 12.2197 25.7973 -50.2368
4 14.9352 23.0817 -50.2368
4 14.9352 25.7973 -52.9522
4 16.293 21.724 -54.31
4 16.293 24.4395 -51.5945
4 19.0085 21.724 -51.5945
4 19.0085 24.4395 -54.31
4 17.6507 23.0817 -52.9522
4 17.6507 25.7973 -50.2368
4 20.3663 23.0817 -50.2368
4 20.3663 25.7973 -52.9522
4 21.724 21.724 -54.31
4 21.724 24.4395 -51.5945
4 24.4395 21.724 -51.5945
4 24.4395 24.4395 -54.31
4 23.0817 23.0817 -52.9522
4 23.0817 25.7973 -50.2368
4 25.7973 23.0817 -50.2368
4 25.7973 25.7973 -52.9522
4 27.155 21.724 -54.31
4 27.155 24.4395 -51.5945
4 29.8705 21.724 -51.5945
4 29.8705 24.4395 -54.31
4 28.5128 23.0817 -52.9522
4 28.5128 25.7973 -50.2368
4 31.2282 23.0817 -50.2368
4 31.2282 25.7973 -52.9522
4 32.586 21.724 -54.31
4 32.586 24.4395 -51.5945
4 35.3015 21.724 -51.5945
4 35.3015 24.4395 -54.31
4 33.9438 23.0817 -52.9522
4 33.9438 25.7973 -50.2368
4 36.6593 23.0817 -50.2368
4 36.6593 25.7973 -52.9522
4 38.017 21.724 -54.31
4 38.017 24.4395 -51.5945
4 40.7325 21.724 -51.5945
4 40.7325 24.4395 -54.31
4 39.3747 23.0817 -52.9522
4 39.3747 25.7973 -50.2368
4 42.0902 23.0817 -50.2368
4 42.0902 25.7973 -52.9522
4 43.448 21.724 -54.31
4 43.448 24.4395 -51.5945
4 46.1635 21.724 -51.5945
4 46.1635 24.4395 -54.31
4 44.8058 23.0817 -52.9522
4 44.8058 25.7973 -50.2368
4 47.5213 23.0817 -50.2368
4 47.5213 25.7973 -52.9522
4 48.879 21.724 -54.31
4 48.879 24.4395 -51.5945
4 51.5945 21.724 -51.5945
4 51.5945 24.4395 -54.31
4 50.2368 23.0817 -52.9522
4 50.2368 25.7973 -50.2368
4 52.9522 23.0817 -50.2368
4 52.9522 25.7973 -52.9522
4 0 27.155 -54.31
4 0 29.8705 -51.5945
4 2.7155 27.155 -51.5945
4 2.7155 29.8705 -54.31
4 1.35775 28.5128 -52.9522
4 1.35775 31.2282 -50.2368
4 4.07325 28.5128 -50.2368
4 4.07325 31.2282 -52.9522
4 5.431 27.155 -54.31
4 5.431 29.8705 -51.5945
4 8.1465 27.155 -51.5945
4 8.1465 29.8705 -54.31
4 6.78875 28.5128 -52.9522
4 6.78875 31.2282 -50.2368
4 9.50425 28.5128 -50.2368
4 9.50425 31.2282 -52.9522
4 10.862 27.155 -54.31
4 10.862 29.8705 -51.5945
4 13.5775 27.155 -51.5945
4 13.5775 29.8705 -54.31
4 12.2197 28.5128 -52.9522
4 12.2197 31.2282 -50.2368
4 14.9352 28.5128 -50.2368
4 14.9352 31.2282 -52.9522
4 16.293 27.155 -54.31
4 16.293 29.8705 -51.5945
4 19.0085 27.155 -51.5945
4 19.0085 29.8705 -54.31
4 17.6507 28.5128 -52.9522
4 17.6507 31.2282 -50.2368
4 20.3663 28.5128 -50.2368
4 20.3663 31.2282 -52.9522
4 21.724 27.155 -54.31
4 21.724 29.8705 -51.5945
4 24.4395 27.155 -51.5945
4 24.4395 29.8705 -54.31
4 23.0817 28.5128 -52.9522
4 23.0817 31.2282 -50.2368
4 25.7973 28.5128 -50.2368
4 25.7973 31.2282 -52.9522
4 27.155 27.155 -54.31
4 27.155 29.8705 -51.5945
4 29.8705 27.155 -51.5945
4 29.8705 29.8705 -54.31
4 28.5128 28.5128 -52.9522
4 28.5128 31.2282 -50.2368
4 31.2282 28.5128 -50.2368
4 31.2282 31.2282 -52.9522
4 32.586 27.155 -54.31
4 32.586 29.8705 -51.5945
4 35.3015 27.155 -51.5945
4 35.3015 29.8705 -54.31
4 33.9438 28.5128 -52.9522
4 33.9438 31.2282 -50.2368
4 36.6593 28.5128 -50.2368
4 36.6593 31.2282 -52.9522
4 38.017 27.155 -54.31
4 38.017 29.8705 -51.5945
4 40.7325 27.155 -51.5945
4 40.7325 29.8705 -54.31
4 39.3747 28.5128 -52.9522
4 39.3747 31.2282 -50.2368
4 42.0902 28.5128 -50.2368
4 42.0902 31.2282 -52.9522
4 43.448 27.155 -54.31
4 43.448 29.8705 -51.5945
4 46.1635 27.155 -51.5945
4 46.1635 29.8705 -54.31
4 44.8058 28.5128 -52.9522
4 44.8058 31.2282 -50.2368
4 47.5213 28.5128 -50.2368
4 47.5213 31.2282 -52.9522
4 48.879 27.155 -54.31
4 48.879 29.8705 -51.5945
4 51.5945 27.155 -51.5945
4 51.5945 29.8705 -54.31
4 50.2368 28.5128 -52.9522
4 50.2368 31.2282 -50.2368
4 52.9522 28.5128 -50.2368
4 52.9522 31.2282 -52.9522
4 0 32.586 -54.31
4 0 35.3015 -51.5945
4 2.7155 32.586 -51.5945
4 2.7155 35.3015 -54.31
4 1.35775 33.9438 -52.9522
4 1.35775 36.6593 -50.2368
4 4.07325 33.9438 -50.2368
4 4.07325 36.6593 -52.9522
4 5.431 32.586 -54.31
4 5.431 35.3015 -51.5945
4 8.1465 32.586 -51.5945
4 8.1465 35.3015 -54.31
4 6.78875 33.9438 -52.9522
4 6.78875 36.6593 -50.2368
4 9.50425 33.9438 -50.2368
4 9.50425 36.6593 -52.9522
4 10.862 32.586 -54.31
4 10.862 35.3015 -51.5945
4 13.5775 32.586 -51.5945
4 13.5775 35.3015 -54.31
4 12.2197 33.9438 -52.9522
4 12.2197 36.6593 -50.2368
4 14.9352 33.9438 -50.2368
4 14.9352 36.6593 -52.9522
4 16.293 32.586 -54.31
4 16.293 35.3015 -51.5945
4 19.0085 32.586 -51.5945
4 19.0085 35.3015 -54.31
4 17.6507 33.9438 -52.9522
4 17.6507 36.6593 -50.2368
4 20.3663 33.9438 -50.2368
4 20.3663 36.6593 -52.9522
4 21.724 32.586 -54.31
4 21.724 35.3015 -51.5945
4 24.4395 32.586 -51.5945
4 24.4395 35.3015 -54.31
4 23.0817 33.9438 -52.9522
4 23.0817 36.6593 -50.2368
4 25.7973 33.9438 -50.2368
4 25.7973 36.6593 -52.9522
4 27.155 32.586 -54.31
4 27.155 35.3015 -51.5945
4 29.8705 32.586 -51.5945
4 29.8705 35.3015 -54.31
4 28.5128 33.9438 -52.9522
4 28.5128 36.6593 -50.2368
4 31.2282 33.9438 -50.2368
4 31.2282 36.6593 -52.9522
4 32.586 32.586 -54.31
4 32.586 35.3015 -51.5945
4 35.3015 32.586 -51.5945
4 35.3015 35.3015 -54.31
4 33.9438 33.9438 -52.9522
4 33.9438 36.6593 -50.2368
4 36.6593 33.9438 -50.2368
4 36.6593 36.6593 -52.9522
4 38.017 32.586 -54.31
4 38.017 35.3015 -51.5945
4 40.7325 32.586 -51.5945
4 40.7325 35.3015 -54.31
4 39.3747 33.9438 -52.9522
4 39.3747 36.6593 -50.2368
4 42.0902 33.9438 -50.2368
4 42.0902 36.6593 -52.9522
4 43.448 32.586 -54.31
4 43.448 35.3015 -51.5945
4 46.1635 32.586 -51.5945
4 46.1635 35.3015 -54.31
4 44.8058 33.9438 -52.9522
4 44.8058 36.6593 -50.2368
4 47.5213 33.9438 -50.2368
4 47.5213 36.6593 -52.9522
4 48.879 32.586 -54.31
4 48.879 35.3015 -51.5945
4 51.5945 32.586 -51.5945
4 51.5945 35.3015 -54.31
4 50.2368 33.9438 -52.9522
4 50.2368 36.6593 -50.2368
4 52.9522 33.9438 -50.2368
4 52.9522 36.6593 -52.9522
4 0 38.017 -54.31
4 0 40.7325 -51.5945
4 2.7155 38.017 -51.5945
4 2.7155 40.7325 -54.31
4 1.35775 39.3747 -52.9522
4 1.35775 42.0902 -50.2368
4 4.07325 39.3747 -50.2368
4 4.07325 42.0902 -52.9522
4 5.431 38.017 -54.31
4 5.431 40.7325 -51.5945
4 8.1465 38.017 -51.5945
4 8.1465 40.7325 -54.31
4 6.78875 39.3747 -52.9522
4 6.78875 42.0902 -50.2368
4 9.50425 39.3747 -50.2368
4 9.50425 42.0902 -52.9522
4 10.862 38.017 -54.31
4 10.862 40.7325 -51.5945
4 13.5775 38.017 -51.5945
4 13.5775 40.7325 -54.31
4 12.2197 39.3747 -52.9522
4 12.2197 42.0902 -50.2368
4 14.9352 39.3747 -50.2368
4 14.9352 42.0902 -52.9522
4 16.293 38.017 -54.31
4 16.293 40.7325 -51.5945
4 19.0085 38.017 -51.5945
4 19.0085 40.7325 -54.31
4 17.6507 39.3747 -52.9522
4 17.6507 42.0902 -50.2368
4 20.3663 39.3747 -50.2368
4 20.3663 42.0902 -52.9522
4 21.724 38.017 -54.31
4 21.724 40.7325 -51.5945
4 24.4395 38.017 -51.5945
4 24.4395 40.7325 -54.31
4 23.0817 39.3747 -52.9522
4 23.0817 42.0902 -50.2368
4 25.7973 39.3747 -50.2368
4 25.7973 42.0902 -52.9522
4 27.155 38.017 -54.31
4 27.155 40.7325 -51.5945
4 29.8705 38.017 -51.5945
4 29.8705 40.7325 -54.31
4 28.5128 39.3747 -52.9522
4 28.5128 42.0902 -50.2368
4 31.2282 39.3747 -50.2368
4 31.2282 42.0902 -52.9522
4 32.586 38.017 -54.31
4 32.586 40.7325 -51.5945
4 35.3015 38.017 -51.5945
4 35.3015 40.7325 -54.31
4 33.9438 39.3747 -52.9522
4 33.9438 42.0902 -50.2368
4 36.6593 39.3747 -50.2368
4 36.6593 42.0902 -52.9522
4 38.017 38.017 -54.31
4 38.017 40.7325 -51.5945
4 40.7325 38.017 -51.5945
4 40.7325 40.7325 -54.31
4 39.3747 39.3747 -52.9522
4 39.3747 42.0902 -50.2368
4 42.0902 39.3747 -50.2368
4 42.0902 42.0902 -52.9522
4 43.448 38.017 -54.31
4 43.448 40.7325 -51.5945
4 46.1635 38.017 -51.5945
4 46.1635 40.7325 -54.31
4 44.8058 39.3747 -52.9522
4 44.8058 42.0902 -50.2368
4 47.5213 39.3747 -50.2368
4 47.5213 42.0902 -52.9522
4 48.879 38.017 -54.31
4 48.879 40.7325 -51.5945
4 51.5945 38.017 -51.5945
4 51.5945 40.7325 -54.31
4 50.2368 39.3747 -52.9522
4 50.2368 42.0902 -50.2368
4 52.9522 39.3747 -50.2368
4 52.9522 42.0902 -52.9522
4 0 43.448 -54.31
4 0 46.1635 -51.5945
4 2.7155 43.448 -51.5945
4 2.7155 46.1635 -54.31
4 1.35775 44.8058 -52.9522
4 1.35775 47.5213 -50.2368
4 4.07325 44.8058 -50.2368
4 4.07325 47.5213 -52.9522
4 5.431 43.448 -54.31
4 5.431 46.1635 -51.5945
4 8.1465 43.448 -51.5945
4 8.1465 46.1635 -54.31
4 6.78875 44.8058 -52.9522
4 6.78875 47.5213 -50.2368
4 9.50425 44.8058 -50.2368
4 9.50425 47.5213 -52.9522
4 10.862 43.448 -54.31
4 10.862 46.1635 -51.5945
4 13.5775 43.448 -51.5945
4 13.5775 46.1635 -54.31
4 12.2197 44.8058 -52.9522
4 12.2197 47.5213 -50.2368
4 14.9352 44.8058 -50.2368
4 14.9352 47.5213 -52.9522
4 16.293 43.448 -54.31
4 16.293 46.1635 -51.5945
4 19.0085 43.448 -51.5945
4 19.0085 46.1635 -54.31
4 17.6507 44.8058 -52.9522
4 17.6507 47.5213 -50.2368
4 20.3663 44.8058 -50.2368
4 20.3663 47.5213 -52.9522
4 21.724 43.448 -54.31
4 21.724 46.1635 -51.5945
4 24.4395 43.448 -51.5945
4 24.4395 46.1635 -54.31
4 23.0817 44.8058 -52.9522
4 23.0817 47.5213 -50.2368
4 25.7973 44.8058 -50.2368
4 25.7973 47.5213 -52.9522
4 27.155 43.448 -54.31
4 27.155 46.1635 -51.5945
4 29.8705 43.448 -51.5945
4 29.8705 46.1635 -54.31
4 28.5128 44.8058 -52.9522
4 28.5128 47.5213 -50.2368
4 31.2282 44.8058 -50.2368
4 31.2282 47.5213 -52.9522
4 32.586 43.448 -54.31
4 32.586 46.1635 -51.5945
4 35.3015 43.448 -51.5945
4 35.3015 46.1635 -54.31
4 33.9438 44.8058 -52.9522
4 33.9438 47.5213 -50.2368
4 36.6593 44.8058 -50.2368
4 36.6593 47.5213 -52.9522
4 38.017 43.448 -54.31
4 38.017 46.1635 -51.5945
4 40.7325 43.448 -51.5945
4 40.7325 46.1635 -54.31
4 39.3747 44.8058 -52.9522
4 39.3747 47.5213 -50.2368
4 42.0902 44.8058 -50.2368
4 42.0902 47.5213 -52.9522
4 43.448 43.448 -54.31
4 43.448 46.1635 -51.5945
4 46.1635 43.448 -51.5945
4 46.1635 46.1635 -54.31
4 44.8058 44.8058 -52.9522
4 44.8058 47.5213 -50.2368
4 47.5213 44.8058 -50.2368
4 47.5213 47.5213 -52.9522
4 48.879 43.448 -54.31
4 48.879 46.1635 -51.5945
4 51.5945 43.448 -51.5945
4 51.5945 46.1635 -54.31
4 50.2368 44.8058 -52.9522
4 50.2368 47.5213 -50.2368
4 52.9522 44.8058 -50.2368
4 52.9522 47.5213 -52.9522
4 0 48.879 -54.31
4 0 51.5945 -51.5945
4 2.7155 48.879 -51.5945
4 2.7155 51.5945 -54.31
4 1.35775 50.2368 -52.9522
4 1.35775 52.9522 -50.2368
4 4.07325 50.2368 -50.2368
4 4.07325 52.9522 -52.9522
4 5.431 48.879 -54.31
4 5.431 51.5945 -51.5945
4 8.1465 48.879 -51.5945
4 8.1465 51.5945 -54.31
4 6.78875 50.2368 -52.9522
4 6.78875 52.9522 -50.2368
4 9.50425 50.2368 -50.2368
4 9.50425 52.9522 -52.9522
4 10.862 48.879 -54.31
4 10.862 51.5945 -51.5945
4 13.5775 48.879 -51.5945
4 13.5775 51.5945 -54.31
4 12.2197 50.2368 -52.9522
4 12.2197 52.9522 -50.2368
4 14.9352 50.2368 -50.2368
4 14.9352 52.9522 -52.9522
4 16.293 48.879 -54.31
4 16.293 51.5945 -51.5945
4 19.0085 48.879 -51.5945
4 19.0085 51.5945 -54.31
4 17.6507 50.2368 -52.9522
4 17.6507 52.9522 -50.2368
4 20.3663 50.2368 -50.2368
4 20.3663 52.9522 -52.9522
4 21.724 48.879 -54.31
4 21.724 51.5945 -51.5945
4 24.4395 48.879 -51.5945
4 24.4395 51.5945 -54.31
4 23.0817 50.2368 -52.9522
4 23.0817 52.9522 -50.2368
4 25.7973 50.2368 -50.2368
4 25.7973 52.9522 -52.9522
4 27.155 48.879 -54.31
4 27.155 51.5945 -51.5945
4 29.8705 48.879 -51.5945
4 29.8705 51.5945 -54.31
4 28.5128 50.2368 -52.9522
4 28.5128 52.9522 -50.2368
4 31.2282 50.2368 -50.2368
4 31.2282 52.9522 -52.9522
4 32.586 48.879 -54.31
4 32.586 51.5945 -51.5945
4 35.3015 48.879 -51.5945
4 35.3015 51.5945 -54.31
4 33.9438 50.2368 -52.9522
4 33.9438 52.9522 -50.2368
4 36.6593 50.2368 -50.2368
4 36.6593 52.9522 -52.9522
4 38.017 48.879 -54.31
4 38.017 51.5945 -51.5945
4 40.7325 48.879 -51.5945
4 40.7325 51.5945 -54.31
4 39.3747 50.2368 -52.9522
4 39.3747 52.9522 -50.2368
4 42.0902 50.2368 -50.2368
4 42.0902 52.9522 -52.9522
4 43.448 48.879 -54.31
4 43.448 51.5945 -51.5945
4 46.1635 48.879 -51.5945
4 46.1635 51.5945 -54.31
4 44.8058 50.2368 -52.9522
4 44.8058 52.9522 -50.2368
4 47.5213 50.2368 -50.2368
4 47.5213 52.9522 -52.9522
4 48.879 48.879 -54.31
4 48.879 51.5945 -51.5945
4 51.5945 48.879 -51.5945
4 51.5945 51.5945 -54.31
4 50.2368 50.2368 -52.9522
4 50.2368 52.9522 -50.2368
4 52.9522 50.2368 -50.2368
4 52.9522 52.9522 -52.9522
4 0 0 -48.879
3 2.32266 0.379911 -45.2875
4 2.7155 2.7155 -48.879
4 1.35775 1.35775 -47.5213
3 0.891248 5.21511 -43.5656
3 3.49848 2.33388 -43.9095
4 4.07325 4.07325 -47.5213
4 5.431 0 -48.879
3 5.00855 3.78598 -45.169
3 7.56964 0.574473 -45.2336
4 8.1465 2.7155 -48.879
4 6.78875 1.35775 -47.5213
3 6.2654 5.12547 -43.6273
3 8.73833 2.15918 -43.7622
4 9.50425 4.07325 -47.5213
4 10.862 0 -48.879
3 10.3542 3.1698 -45.2623
3 12.4596 0.54896 -45.1273
4 13.5775 2.7155 -48.879
4 12.2197 1.35775 -47.5213
3 11.3435 4.89826 -43.7001
3 14.0589 2.06267 -43.7805
4 14.9352 4.07325 -47.5213
4 16.293 0 -48.879
3 15.7397 3.09086 -45.2246
1 17.8623 0.458456 -45.122
4 19.0085 2.7155 -48.879
4 17.6507 1.35775 -47.5213
1 16.5818 4.79256 -43.6216
1 19.2005 1.9991 -43.5938
4 20.3663 4.07325 -47.5213
4 21.724 0 -48.879
1 20.5789 3.19506 -45.1584
1 23.5464 0.545335 -45.1005
4 24.4395 2.7155 -48.879
4 23.0817 1.35775 -47.5213
1 21.8832 4.62215 -43.5388
1 24.8777 2.08163 -43.7078
4 25.7973 4.07325 -47.5213
4 27.155 0 -48.879
1 26.6495 3.37599 -45.1808
1 29.4203 1.36467 -45.0549
4 29.8705 2.7155 -48.879
4 28.5128 1.35775 -47.5213
1 27.8233 5.05765 -43.7925
1 30.6927 2.83949 -43.531
4 31.2282 4.07325 -47.5213
4 32.586 0 -48.879
1 32.2486 3.93244 -44.9994
1 34.837 1.47778 -45.0072
4 35.3015 2.7155 -48.879
4 33.9438 1.35775 -47.5213
1 33.4858 5.34568 -43.5505
1 36.2326 2.734 -43.5415
4 36.6593 4.07325 -47.5213
4 38.017 0 -48.879
1 37.5946 4.02379 -45.026
1 40.3918 1.72511 -45.036
4 40.7325 2.7155 -48.879
4 39.3747 1.35775 -47.5213
1 39.0149 5.43954 -43.7023
1 41.8243 3.11803 -43.6575
4 42.0902 4.07325 -47.5213
4 43.448 0 -48.879
1 43.0136 4.57965 -45.1055
1 45.8406 1.53222 -44.9725
4 46.1635 2.7155 -48.879
4 44.8058 1.35775 -47.5213
1 44.4832 5.81935 -43.5927
1 47.1986 2.96662 -43.609
4 47.5213 4.07325 -47.5213
4 48.879 0 -48.879
1 48.5448 4.47093 -45.031
1 51.2796 1.62489 -45.0697
4 51.5945 2.7155 -48.879
4 50.2368 1.35775 -47.5213
1 49.8399 5.95831 -43.5371
1 52.3757 3.19764 -43.5897
4 52.9522 4.07325 -47.5213
4 0 5.431 -48.879
3 2.42471 5.77396 -45.2514
4 2.7155 8.1465 -48.879
4 1.35775 6.78875 -47.5213
3 1.00053 10.759 -43.5536
3 3.42311 7.71036 -43.8331
4 4.07325 9.50425 -47.5213
4 5.431 5.431 -48.879
3 4.96996 9.1655 -45.0743
3 7.63862 6.50184 -45.0587
4 8.1465 8.1465 -48.879
4 6.78875 6.78875 -47.5213
3 6.204 10.6459 -43.6687
3 8.91804 7.87758 -43.6275
4 9.50425 9.50425 -47.5213
4 10.862 5.431 -48.879
3 10.392 9.04365 -45.1018
3 12.9307 6.00392 -45.2439
4 13.5775 8.1465 -48.879
4 12.2197 6.78875 -47.5213
3 11.5186 10.6053 -43.6675
3 13.9804 7.56062 -43.6508
4 14.9352 9.50425 -47.5213
4 16.293 5.431 -48.879
3 15.4543 8.67955 -45.0975
1 18.1942 5.86213 -45.0788
4 19.0085 8.1465 -48.879
4 17.6507 6.78875 -47.5213
1 16.7744 10.2576 -43.6592
1 19.2216 7.52241 -43.5821
4 20.3663 9.50425 -47.5213
4 21.724 5.431 -48.879
1 20.7155 8.72127 -45.0923
1 23.0902 5.8788 -45.1073
4 24.4395 8.1465 -48.879
4 23.0817 6.78875 -47.5213
1 22.007 10.2582 -43.6819
1 24.7059 7.31941 -43.6507
4 25.7973 9.50425 -47.5213
4 27.155 5.431 -48.879
1 26.1673 8.64996 -45.0163
1 29.3068 6.68543 -45.1361
4 29.8705 8.1465 -48.879
4 28.5128 6.78875 -47.5213
1 27.5309 10.1662 -43.5946
1 30.6295 7.86217 -43.5641
4 31.2282 9.50425 -47.5213
4 32.586 5.431 -48.879
1 32.0512 9.43277 -45.0249
1 34.7718 6.83071 -45.0205
4 35.3015 8.1465 -48.879
4 33.9438 6.78875 -47.5213
1 33.4798 10.7268 -43.5857
1 36.2384 8.11702 -43.5574
4 36.6593 9.50425 -47.5213
4 38.017 5.431 -48.879
1 37.6727 9.43411 -45.0492
1 40.1977 7.2294 -45.0621
4 40.7325 8.1465 -48.879
4 39.3747 6.78875 -47.5213
1 38.9855 10.8983 -43.7231
1 41.6655 8.43502 -43.4153
4 42.0902 9.50425 -47.5213
4 43.448 5.431 -48.879
1 43.0512 9.76882 -45.0112
1 45.604 7.51867 -45.1994
4 46.1635 8.1465 -48.879
4 44.8058 6.78875 -47.5213
1 44.4326 11.1264 -43.5083
1 47.123 8.5884 -43.6097
4 47.5213 9.50425 -47.5213
4 48.879 5.431 -48.879
1 48.4511 10.0092 -45.1038
1 51.1679 7.36634 -45.1643
4 51.5945 8.1465 -48.879
4 50.2368 6.78875 -47.5213
1 49.7157 11.463 -43.6762
1 52.3202 9.09283 -43.9481
4 52.9522 9.50425 -47.5213
4 0 10.862 -48.879
3 2.45771 11.3574 -45.2171
4 2.7155 13.5775 -48.879
4 1.35775 12.2197 -47.5213
3 0.785994 16.1311 -43.5472
3 3.47085 13.1753 -43.8043
4 4.07325 14.9352 -47.5213
4 5.431 10.862 -48.879
3 4.9757 14.6403 -45.003
3 7.75984 11.8688 -45.1838
4 8.1465 13.5775 -48.879
4 6.78875 12.2197 -47.5213
3 6.20441 16.2438 -43.6086
3 8.80952 13.5061 -43.6587
4 9.50425 14.9352 -47.5213
4 10.862 10.862 -48.879
3 10.3839 14.821 -45.0557
3 12.9966 11.6831 -45.2229
4 13.5775 13.5775 -48.879
4 12.2197 12.2197 -47.5213
3 11.7915 16.1654 -43.6416
3 14.23 13.2745 -43.7524
4 14.9352 14.9352 -47.5213
4 16.293 10.862 -48.879
3 15.9102 14.1753 -45.2506
1 18.2468 11.4019 -45.0785
4 19.0085 13.5775 -48.879
4 17.6507 12.2197 -47.5213
1 17.0661 15.96 -43.8403
1 19.4518 13.0044 -43.6761
4 20.3663 14.9352 -47.5213
4 21.724 10.862 -48.879
1 21.0553 13.9951 -45.1005
1 23.3928 11.48 -45.1089
4 24.4395 13.5775 -48.879
4 23.0817 12.2197 -47.5213
1 22.4171 15.684 -43.7231
1 24.7597 12.8346 -43.6456
4 25.7973 14.9352 -47.5213
4 27.155 10.862 -48.879
1 26.1362 14.0919 -45.0668
1 28.8832 11.4372 -45.0723
4 29.8705 13.5775 -48.879
4 28.5128 12.2197 -47.5213
1 27.5898 15.632 -43.8076
1 30.334 12.9785 -43.6722
4 31.2282 14.9352 -47.5213
4 32.586 10.862 -48.879
1 32.0931 14.1969 -45.183
1 34.8933 12.3643 -44.9852
4 35.3015 13.5775 -48.879
4 33.9438 12.2197 -47.5213
1 33.3221 15.9932 -43.7938
1 36.3091 13.6417 -43.5774
4 36.6593 14.9352 -47.5213
4 38.017 10.862 -48.879
1 37.5933 15.0441 -45.0635
1 40.3002 12.6417 -45.0524
4 40.7325 13.5775 -48.879
4 39.3747 12.2197 -47.5213
1 38.9659 16.443 -43.5773
1 41.6075 13.911 -43.501
4 42.0902 14.9352 -47.5213
4 43.448 10.862 -48.879
1 42.941 15.3464 -45.1019
1 45.6355 12.5895 -45.0191
4 46.1635 13.5775 -48.879
4 44.8058 12.2197 -47.5213
1 44.2723 16.6899 -43.597
1 46.958 14.0716 -43.5653
4 47.5213 14.9352 -47.5213
4 48.879 10.862 -48.879
1 48.386 15.491 -45.2105
1 50.99 13.2221 -45.2977
4 51.5945 13.5775 -48.879
4 50.2368 12.2197 -47.5213
1 49.8455 16.8368 -43.6329
1 52.4311 14.2503 -43.733
4 52.9522 14.9352 -47.5213
4 0 16.293 -48.879
3 2.37216 16.7875 -45.1662
4 2.7155 19.0085 -48.879
4 1.35775 17.6507 -47.5213
3 1.06752 21.1904 -44.3324
3 3.40568 18.574 -43.6519
4 4.07325 20.3663 -47.5213
4 5.431 16.293 -48.879
3 5.09088 19.79 -45.1116
3 7.74936 17.451 -45.0784
4 8.1465 19.0085 -48.879
4 6.78875 17.6507 -47.5213
3 6.23585 21.6003 -43.8166
3 9.05166 18.9353 -43.7267
4 9.50425 20.3663 -47.5213
4 10.862 16.293 -48.879
3 10.381 20.4755 -45.0585
3 13.2023 17.5241 -45.0254
4 13.5775 19.0085 -48.879
4 12.2197 17.6507 -47.5213
3 11.8492 21.7447 -43.7169
3 14.4664 18.8474 -43.5871
4 14.9352 20.3663 -47.5213
4 16.293 16.293 -48.879
3 15.7908 20.1477 -45.0749
1 18.6843 17.4973 -44.999
4 19.0085 19.0085 -48.879
4 17.6507 17.6507 -47.5213
1 17.1169 21.5289 -43.6383
1 19.8516 19.0265 -43.6566
4 20.3663 20.3663 -47.5213
4 21.724 16.293 -48.879
1 21.1349 20.4135 -45.1638
1 24.1424 16.821 -45.3007
4 24.4395 19.0085 -48.879
4 23.0817 17.6507 -47.5213
1 22.5747 21.7782 -43.6974
1 24.9109 18.4578 -43.6575
4 25.7973 20.3663 -47.5213
4 27.155 16.293 -48.879
1 26.4622 19.5421 -45.2409
1 29.1315 16.8841 -45.2504
4 29.8705 19.0085 -48.879
4 28.5128 17.6507 -47.5213
1 27.9189 21.161 -43.8317
1 30.5752 18.5467 -43.9485
4 31.2282 20.3663 -47.5213
4 32.586 16.293 -48.879
1 32.2619 19.6144 -45.2305
1 34.7018 17.5092 -45.1213
4 35.3015 19.0085 -48.879
4 33.9438 17.6507 -47.5213
1 33.3416 21.5705 -43.8317
1 36.054 18.9539 -43.6886
4 36.6593 20.3663 -47.5213
4 38.017 16.293 -48.879
1 37.567 20.19 -45.0232
1 40.2793 17.9898 -45.1082
4 40.7325 19.0085 -48.879
4 39.3747 17.6507 -47.5213
1 38.9038 21.8486 -43.8103
1 41.6157 19.3495 -43.7199
4 42.0902 20.3663 -47.5213
4 43.448 16.293 -48.879
1 43.0788 20.7164 -45.0987
1 45.636 18.1406 -45.0781
4 46.1635 19.0085 -48.879
4 44.8058 17.6507 -47.5213
1 44.2925 22.0439 -43.6637
1 47.0943 19.3921 -43.5348
4 47.5213 20.3663 -47.5213
4 48.879 16.293 -48.879
1 48.4064 20.9466 -45.0952
1 51.187 18.2082 -45.1451
4 51.5945 19.0085 -48.879
4 50.2368 17.6507 -47.5213
1 49.7758 22.4232 -43.7922
1 52.3486 19.976 -43.8115
4 52.9522 20.3663 -47.5213
4 0 21.724 -48.879
3 2.16288 23.1554 -45.0718
4 2.7155 24.4395 -48.879
4 1.35775 23.0817 -47.5213
3 0.945401 26.8863 -43.6603
3 3.57674 24.4516 -43.5881
4 4.07325 25.7973 -47.5213
4 5.431 21.724 -48.879
3 5.06763 25.8027 -45.0127
3 7.79271 23.1066 -45.0308
4 8.1465 24.4395 -48.879
4 6.78875 23.0817 -47.5213
3 6.42065 27.2128 -43.5165
3 9.09869 24.624 -43.6955
4 9.50425 25.7973 -47.5213
4 10.862 21.724 -48.879
3 10.3431 26.2106 -45.1032
3 13.1841 23.1871 -45.0619
4 13.5775 24.4395 -48.879
4 12.2197 23.0817 -47.5213
3 11.8381 27.246 -43.4757
3 14.4712 24.4218 -43.5656
4 14.9352 25.7973 -47.5213
4 16.293 21.724 -48.879
3 15.8183 25.7976 -45.0329
1 18.6127 22.9523 -45.0794
4 19.0085 24.4395 -48.879
4 17.6507 23.0817 -47.5213
1 17.1699 27.2975 -43.5769
1 19.9706 24.5686 -43.7531
4 20.3663 25.7973 -47.5213
4 21.724 21.724 -48.879
1 21.2328 26.1669 -45.0466
1 23.5521 23.4184 -45.0161
4 24.4395 24.4395 -48.879
4 23.0817 23.0817 -47.5213
1 22.7576 27.2827 -43.5018
1 25.2973 24.4257 -43.6594
4 25.7973 25.7973 -47.5213
4 27.155 21.724 -48.879
1 26.5805 25.8614 -45.164
1 29.2839 22.868 -45.0807
4 29.8705 24.4395 -48.879
4 28.5128 23.0817 -47.5213
1 28.1077 27.2266 -43.7981
1 30.7211 24.2092 -43.6828
4 31.2282 25.7973 -47.5213
4 32.586 21.724 -48.879
1 32.4668 25.3514 -44.7817