13306
 Atoms. Timestep: 150000
4 0 0 -54.31
4 0 2.7155 -51.5945
4 2.7155 0 -51.5945
4 2.7155 2.7155 -54.31
4 1.35775 1.35775 -52.9522
4 1.35775 4.07325 -50.2368
4 4.07325 1.35775 -50.2368
4 4.07325 4.07325 -52.9522
4 5.431 0 -54.31
4 5.431 2.7155 -51.5945
4 8.1465 0 -51.5945
4 8.1465 2.7155 -54.31
4 6.78875 1.35775 -52.9522
4 6.78875 4.07325 -50.2368
4 9.50425 1.35775 -50.2368
4 9.50425 4.07325 -52.9522
4 10.862 0 -54.31
4 10.862 2.7155 -51.5945
4 13.5775 0 -51.5945
4 13.5775 2.7155 -54.31
4 12.2197 1.35775 -52.9522
4 12.2197 4.07325 -50.2368
4 14.9352 1.35775 -50.2368
4 14.9352 4.07325 -52.9522
4 16.293 0 -54.31
4 16.293 2.7155 -51.5945
4 19.0085 0 -51.5945
4 19.0085 2.7155 -54.31
4 17.6507 1.35775 -52.9522
4 17.6507 4.07325 -50.2368
4 20.3663 1.35775 -50.2368
4 20.3663 4.07325 -52.9522
4 21.724 0 -54.31
4 21.724 2.7155 -51.5945
4 24.4395 0 -51.5945
4 24.4395 2.7155 -54.31
4 23.0817 1.35775 -52.9522
4 23.0817 4.07325 -50.2368
4 25.7973 1.35775 -50.2368
4 25.7973 4.07325 -52.9522
4 27.155 0 -54.31
4 27.155 2.7155 -51.5945
4 29.8705 0 -51.5945
4 29.8705 2.7155 -54.31
4 28.5128 1.35775 -52.9522
4 28.5128 4.07325 -50.2368
4 31.2282 1.35775 -50.2368
4 31.2282 4.07325 -52.9522
4 32.586 0 -54.31
4 32.586 2.7155 -51.5945
4 35.3015 0 -51.5945
4 35.3015 2.7155 -54.31
4 33.9438 1.35775 -52.9522
4 33.9438 4.07325 -50.2368
4 36.6593 1.35775 -50.2368
4 36.6593 4.07325 -52.9522
4 38.017 0 -54.31
4 38.017 2.7155 -51.5945
4 40.7325 0 -51.5945
4 40.7325 2.7155 -54.31
4 39.3747 1.35775 -52.9522
4 39.3747 4.07325 -50.2368
4 42.0902 1.35775 -50.2368
4 42.0902 4.07325 -52.9522
4 43.448 0 -54.31
4 43.448 2.7155 -51.5945
4 46.1635 0 -51.5945
4 46.1635 2.7155 -54.31
4 44.8058 1.35775 -52.9522
4 44.8058 4.07325 -50.2368
4 47.5213 1.35775 -50.2368
4 47.5213 4.07325 -52.9522
4 48.879 0 -54.31
4 48.879 2.7155 -51.5945
4 51.5945 0 -51.5945
4 51.5945 2.7155 -54.31
4 50.2368 1.35775 -52.9522
4 50.2368 4.07325 -50.2368
4 52.9522 1.35775 -50.2368
4 52.9522 4.07325 -52.9522
4 0 5.431 -54.31
4 0 8.1465 -51.5945
4 2.7155 5.431 -51.5945
4 2.7155 8.1465 -54.31
4 1.35775 6.78875 -52.9522
4 1.35775 9.50425 -50.2368
4 4.07325 6.78875 -50.2368
4 4.07325 9.50425 -52.9522
4 5.431 5.431 -54.31
4 5.431 8.1465 -51.5945
4 8.1465 5.431 -51.5945
4 8.1465 8.1465 -54.31
4 6.78875 6.78875 -52.9522
4 6.78875 9.50425 -50.2368
4 9.50425 6.78875 -50.2368
4 9.50425 9.50425 -52.9522
4 10.862 5.431 -54.31
4 10.862 8.1465 -51.5945
4 13.5775 5.431 -51.5945
4 13.5775 8.1465 -54.31
4 12.2197 6.78875 -52.9522
4 12.2197 9.50425 -50.2368
4 14.9352 6.78875 -50.2368
4 14.9352 9.50425 -52.9522
4 16.293 5.431 -54.31
4 16.293 8.1465 -51.5945
4 19.0085 5.431 -51.5945
4 19.0085 8.1465 -54.31
4 17.6507 6.78875 -52.9522
4 17.6507 9.50425 -50.2368
4 20.3663 6.78875 -50.2368
4 20.3663 9.50425 -52.9522
4 21.724 5.431 -54.31
4 21.724 8.1465 -51.5945
4 24.4395 5.431 -51.5945
4 24.4395 8.1465 -54.31
4 23.0817 6.78875 -52.9522
4 23.0817 9.50425 -50.2368
4 25.7973 6.78875 -50.2368
4 25.7973 9.50425 -52.9522
4 27.155 5.431 -54.31
4 27.155 8.1465 -51.5945
4 29.8705 5.431 -51.5945
4 29.8705 8.1465 -54.31
4 28.5128 6.78875 -52.9522
4 28.5128 9.50425 -50.2368
4 31.2282 6.78875 -50.2368
4 31.2282 9.50425 -52.9522
4 32.586 5.431 -54.31
4 32.586 8.1465 -51.5945
4 35.3015 5.431 -51.5945
4 35.3015 8.1465 -54.31
4 33.9438 6.78875 -52.9522
4 33.9438 9.50425 -50.2368
4 36.6593 6.78875 -50.2368
4 36.6593 9.50425 -52.9522
4 38.017 5.431 -54.31
4 38.017 8.1465 -51.5945
4 40.7325 5.431 -51.5945
4 40.7325 8.1465 -54.31
4 39.3747 6.78875 -52.9522
4 39.3747 9.50425 -50.2368
4 42.0902 6.78875 -50.2368
4 42.0902 9.50425 -52.9522
4 43.448 5.431 -54.31
4 43.448 8.1465 -51.5945
4 46.1635 5.431 -51.5945
4 46.1635 8.1465 -54.31
4 44.8058 6.78875 -52.9522
4 44.8058 9.50425 -50.2368
4 47.5213 6.78875 -50.2368
4 47.5213 9.50425 -52.9522
4 48.879 5.431 -54.31
4 48.879 8.1465 -51.5945
4 51.5945 5.431 -51.5945
4 51.5945 8.1465 -54.31
4 50.2368 6.78875 -52.9522
4 50.2368 9.50425 -50.2368
4 52.9522 6.78875 -50.2368
4 52.9522 9.50425 -52.9522
4 0 10.862 -54.31
4 0 13.5775 -51.5945
4 2.7155 10.862 -51.5945
4 2.7155 13.5775 -54.31
4 1.35775 12.2197 -52.9522
4 1.35775 14.9352 -50.2368
4 4.07325 12.2197 -50.2368
4 4.07325 14.9352 -52.9522
4 5.431 10.862 -54.31
4 5.431 13.5775 -51.5945
4 8.1465 10.862 -51.5945
4 8.1465 13.5775 -54.31
4 6.78875 12.2197 -52.9522
4 6.78875 14.9352 -50.2368
4 9.50425 12.2197 -50.2368
4 9.50425 14.9352 -52.9522
4 10.862 10.862 -54.31
4 10.862 13.5775 -51.5945
4 13.5775 10.862 -51.5945
4 13.5775 13.5775 -54.31
4 12.2197 12.2197 -52.9522
4 12.2197 14.9352 -50.2368
4 14.9352 12.2197 -50.2368
4 14.9352 14.9352 -52.9522
4 16.293 10.862 -54.31
4 16.293 13.5775 -51.5945
4 19.0085 10.862 -51.5945
4 19.0085 13.5775 -54.31
4 17.6507 12.2197 -52.9522
4 17.6507 14.9352 -50.2368
4 20.3663 12.2197 -50.2368
4 20.3663 14.9352 -52.9522
4 21.724 10.862 -54.31
4 21.724 13.5775 -51.5945
4 24.4395 10.862 -51.5945
4 24.4395 13.5775 -54.31
4 23.0817 12.2197 -52.9522
4 23.0817 14.9352 -50.2368
4 25.7973 12.2197 -50.2368
4 25.7973 14.9352 -52.9522
4 27.155 10.862 -54.31
4 27.155 13.5775 -51.5945
4 29.8705 10.862 -51.5945
4 29.8705 13.5775 -54.31
4 28.5128 12.2197 -52.9522
4 28.5128 14.9352 -50.2368
4 31.2282 12.2197 -50.2368
4 31.2282 14.9352 -52.9522
4 32.586 10.862 -54.31
4 32.586 13.5775 -51.5945
4 35.3015 10.862 -51.5945
4 35.3015 13.5775 -54.31
4 33.9438 12.2197 -52.9522
4 33.9438 14.9352 -50.2368
4 36.6593 12.2197 -50.2368
4 36.6593 14.9352 -52.9522
4 38.017 10.862 -54.31
4 38.017 13.5775 -51.5945
4 40.7325 10.862 -51.5945
4 40.7325 13.5775 -54.31
4 39.3747 12.2197 -52.9522
4 39.3747 14.9352 -50.2368
4 42.0902 12.2197 -50.2368
4 42.0902 14.9352 -52.9522
4 43.448 10.862 -54.31
4 43.448 13.5775 -51.5945
4 46.1635 10.862 -51.5945
4 46.1635 13.5775 -54.31
4 44.8058 12.2197 -52.9522
4 44.8058 14.9352 -50.2368
4 47.5213 12.2197 -50.2368
4 47.5213 14.9352 -52.9522
4 48.879 10.862 -54.31
4 48.879 13.5775 -51.5945
4 51.5945 10.862 -51.5945
4 51.5945 13.5775 -54.31
4 50.2368 12.2197 -52.9522
4 50.2368 14.9352 -50.2368
4 52.9522 12.2197 -50.2368
4 52.9522 14.9352 -52.9522
4 0 16.293 -54.31
4 0 19.0085 -51.5945
4 2.7155 16.293 -51.5945
4 2.7155 19.0085 -54.31
4 1.35775 17.6507 -52.9522
4 1.35775 20.3663 -50.2368
4 4.07325 17.6507 -50.2368
4 4.07325 20.3663 -52.9522
4 5.431 16.293 -54.31
4 5.431 19.0085 -51.5945
4 8.1465 16.293 -51.5945
4 8.1465 19.0085 -54.31
4 6.78875 17.6507 -52.9522
4 6.78875 20.3663 -50.2368
4 9.50425 17.6507 -50.2368
4 9.50425 20.3663 -52.9522
4 10.862 16.293 -54.31
4 10.862 19.0085 -51.5945
4 13.5775 16.293 -51.5945
4 13.5775 19.0085 -54.31
4 12.2197 17.6507 -52.9522
4 12.2197 20.3663 -50.2368
4 14.9352 17.6507 -50.2368
4 14.9352 20.3663 -52.9522
4 16.293 16.293 -54.31
4 16.293 19.0085 -51.5945
4 19.0085 16.293 -51.5945
4 19.0085 19.0085 -54.31
4 17.6507 17.6507 -52.9522
4 17.6507 20.3663 -50.2368
4 20.3663 17.6507 -50.2368
4 20.3663 20.3663 -52.9522
4 21.724 16.293 -54.31
4 21.724 19.0085 -51.5945
4 24.4395 16.293 -51.5945
4 24.4395 19.0085 -54.31
4 23.0817 17.6507 -52.9522
4 23.0817 20.3663 -50.2368
4 25.7973 17.6507 -50.2368
4 25.7973 20.3663 -52.9522
4 27.155 16.293 -54.31
4 27.155 19.0085 -51.5945
4 29.8705 16.293 -51.5945
4 29.8705 19.0085 -54.31
4 28.5128 17.6507 -52.9522
4 28.5128 20.3663 -50.2368
4 31.2282 17.6507 -50.2368
4 31.2282 20.3663 -52.9522
4 32.586 16.293 -54.31
4 32.586 19.0085 -51.5945
4 35.3015 16.293 -51.5945
4 35.3015 19.0085 -54.31
4 33.9438 17.6507 -52.9522
4 33.9438 20.3663 -50.2368
4 36.6593 17.6507 -50.2368
4 36.6593 20.3663 -52.9522
4 38.017 16.293 -54.31
4 38.017 19.0085 -51.5945
4 40.7325 16.293 -51.5945
4 40.7325 19.0085 -54.31
4 39.3747 17.6507 -52.9522
4 39.3747 20.3663 -50.2368
4 42.0902 17.6507 -50.2368
4 42.0902 20.3663 -52.9522
4 43.448 16.293 -54.31
4 43.448 19.0085 -51.5945
4 46.1635 16.293 -51.5945
4 46.1635 19.0085 -54.31
4 44.8058 17.6507 -52.9522
4 44.8058 20.3663 -50.2368
4 47.5213 17.6507 -50.2368
4 47.5213 20.3663 -52.9522
4 48.879 16.293 -54.31
4 48.879 19.0085 -51.5945
4 51.5945 16.293 -51.5945
4 51.5945 19.0085 -54.31
4 50.2368 17.6507 -52.9522
4 50.2368 20.3663 -50.2368
4 52.9522 17.6507 -50.2368
4 52.9522 20.3663 -52.9522
4 0 21.724 -54.31
4 0 24.4395 -51.5945
4 2.7155 21.724 -51.5945
4 2.7155 24.4395 -54.31
4 1.35775 23.0817 -52.9522
4 1.35775 25.7973 -50.2368
4 4.07325 23.0817 -50.2368
4 4.07325 25.7973 -52.9522
4 5.431 21.724 -54.31
4 5.431 24.4395 -51.5945
4 8.1465 21.724 -51.5945
4 8.1465 24.4395 -54.31
4 6.78875 23.0817 -52.9522
4 6.78875 25.7973 -50.2368
4 9.50425 23.0817 -50.2368
4 9.50425 25.7973 -52.9522
4 10.862 21.724 -54.31
4 10.862 24.4395 -51.5945
4 13.5775 21.724 -51.5945
4 13.5775 24.4395 -54.31
4 12.2197 23.0817 -52.9522
4 12.2197 25.7973 -50.2368
4 14.9352 23.0817 -50.2368
4 14.9352 25.7973 -52.9522
4 16.293 21.724 -54.31
4 16.293 24.4395 -51.5945
4 19.0085 21.724 -51.5945
4 19.0085 24.4395 -54.31
4 17.6507 23.0817 -52.9522
4 17.6507 25.7973 -50.2368
4 20.3663 23.0817 -50.2368
4 20.3663 25.7973 -52.9522
4 21.724 21.724 -54.31
4 21.724 24.4395 -51.5945
4 24.4395 21.724 -51.5945
4 24.4395 24.4395 -54.31
4 23.0817 23.0817 -52.9522
4 23.0817 25.7973 -50.2368
4 25.7973 23.0817 -50.2368
4 25.7973 25.7973 -52.9522
4 27.155 21.724 -54.31
4 27.155 24.4395 -51.5945
4 29.8705 21.724 -51.5945
4 29.8705 24.4395 -54.31
4 28.5128 23.0817 -52.9522
4 28.5128 25.7973 -50.2368
4 31.2282 23.0817 -50.2368
4 31.2282 25.7973 -52.9522
4 32.586 21.724 -54.31
4 32.586 24.4395 -51.5945
4 35.3015 21.724 -51.5945
4 35.3015 24.4395 -54.31
4 33.9438 23.0817 -52.9522
4 33.9438 25.7973 -50.2368
4 36.6593 23.0817 -50.2368
4 36.6593 25.7973 -52.9522
4 38.017 21.724 -54.31
4 38.017 24.4395 -51.5945
4 40.7325 21.724 -51.5945
4 40.7325 24.4395 -54.31
4 39.3747 23.0817 -52.9522
4 39.3747 25.7973 -50.2368
4 42.0902 23.0817 -50.2368
4 42.0902 25.7973 -52.9522
4 43.448 21.724 -54.31
4 43.448 24.4395 -51.5945
4 46.1635 21.724 -51.5945
4 46.1635 24.4395 -54.31
4 44.8058 23.0817 -52.9522
4 44.8058 25.7973 -50.2368
4 47.5213 23.0817 -50.2368
4 47.5213 25.7973 -52.9522
4 48.879 21.724 -54.31
4 48.879 24.4395 -51.5945
4 51.5945 21.724 -51.5945
4 51.5945 24.4395 -54.31
4 50.2368 23.0817 -52.9522
4 50.2368 25.7973 -50.2368
4 52.9522 23.0817 -50.2368
4 52.9522 25.7973 -52.9522
4 0 27.155 -54.31
4 0 29.8705 -51.5945
4 2.7155 27.155 -51.5945
4 2.7155 29.8705 -54.31
4 1.35775 28.5128 -52.9522
4 1.35775 31.2282 -50.2368
4 4.07325 28.5128 -50.2368
4 4.07325 31.2282 -52.9522
4 5.431 27.155 -54.31
4 5.431 29.8705 -51.5945
4 8.1465 27.155 -51.5945
4 8.1465 29.8705 -54.31
4 6.78875 28.5128 -52.9522
4 6.78875 31.2282 -50.2368
4 9.50425 28.5128 -50.2368
4 9.50425 31.2282 -52.9522
4 10.862 27.155 -54.31
4 10.862 29.8705 -51.5945
4 13.5775 27.155 -51.5945
4 13.5775 29.8705 -54.31
4 12.2197 28.5128 -52.9522
4 12.2197 31.2282 -50.2368
4 14.9352 28.5128 -50.2368
4 14.9352 31.2282 -52.9522
4 16.293 27.155 -54.31
4 16.293 29.8705 -51.5945
4 19.0085 27.155 -51.5945
4 19.0085 29.8705 -54.31
4 17.6507 28.5128 -52.9522
4 17.6507 31.2282 -50.2368
4 20.3663 28.5128 -50.2368
4 20.3663 31.2282 -52.9522
4 21.724 27.155 -54.31
4 21.724 29.8705 -51.5945
4 24.4395 27.155 -51.5945
4 24.4395 29.8705 -54.31
4 23.0817 28.5128 -52.9522
4 23.0817 31.2282 -50.2368
4 25.7973 28.5128 -50.2368
4 25.7973 31.2282 -52.9522
4 27.155 27.155 -54.31
4 27.155 29.8705 -51.5945
4 29.8705 27.155 -51.5945
4 29.8705 29.8705 -54.31
4 28.5128 28.5128 -52.9522
4 28.5128 31.2282 -50.2368
4 31.2282 28.5128 -50.2368
4 31.2282 31.2282 -52.9522
4 32.586 27.155 -54.31
4 32.586 29.8705 -51.5945
4 35.3015 27.155 -51.5945
4 35.3015 29.8705 -54.31
4 33.9438 28.5128 -52.9522
4 33.9438 31.2282 -50.2368
4 36.6593 28.5128 -50.2368
4 36.6593 31.2282 -52.9522
4 38.017 27.155 -54.31
4 38.017 29.8705 -51.5945
4 40.7325 27.155 -51.5945
4 40.7325 29.8705 -54.31
4 39.3747 28.5128 -52.9522
4 39.3747 31.2282 -50.2368
4 42.0902 28.5128 -50.2368
4 42.0902 31.2282 -52.9522
4 43.448 27.155 -54.31
4 43.448 29.8705 -51.5945
4 46.1635 27.155 -51.5945
4 46.1635 29.8705 -54.31
4 44.8058 28.5128 -52.9522
4 44.8058 31.2282 -50.2368
4 47.5213 28.5128 -50.2368
4 47.5213 31.2282 -52.9522
4 48.879 27.155 -54.31
4 48.879 29.8705 -51.5945
4 51.5945 27.155 -51.5945
4 51.5945 29.8705 -54.31
4 50.2368 28.5128 -52.9522
4 50.2368 31.2282 -50.2368
4 52.9522 28.5128 -50.2368
4 52.9522 31.2282 -52.9522
4 0 32.586 -54.31
4 0 35.3015 -51.5945
4 2.7155 32.586 -51.5945
4 2.7155 35.3015 -54.31
4 1.35775 33.9438 -52.9522
4 1.35775 36.6593 -50.2368
4 4.07325 33.9438 -50.2368
4 4.07325 36.6593 -52.9522
4 5.431 32.586 -54.31
4 5.431 35.3015 -51.5945
4 8.1465 32.586 -51.5945
4 8.1465 35.3015 -54.31
4 6.78875 33.9438 -52.9522
4 6.78875 36.6593 -50.2368
4 9.50425 33.9438 -50.2368
4 9.50425 36.6593 -52.9522
4 10.862 32.586 -54.31
4 10.862 35.3015 -51.5945
4 13.5775 32.586 -51.5945
4 13.5775 35.3015 -54.31
4 12.2197 33.9438 -52.9522
4 12.2197 36.6593 -50.2368
4 14.9352 33.9438 -50.2368
4 14.9352 36.6593 -52.9522
4 16.293 32.586 -54.31
4 16.293 35.3015 -51.5945
4 19.0085 32.586 -51.5945
4 19.0085 35.3015 -54.31
4 17.6507 33.9438 -52.9522
4 17.6507 36.6593 -50.2368
4 20.3663 33.9438 -50.2368
4 20.3663 36.6593 -52.9522
4 21.724 32.586 -54.31
4 21.724 35.3015 -51.5945
4 24.4395 32.586 -51.5945
4 24.4395 35.3015 -54.31
4 23.0817 33.9438 -52.9522
4 23.0817 36.6593 -50.2368
4 25.7973 33.9438 -50.2368
4 25.7973 36.6593 -52.9522
4 27.155 32.586 -54.31
4 27.155 35.3015 -51.5945
4 29.8705 32.586 -51.5945
4 29.8705 35.3015 -54.31
4 28.5128 33.9438 -52.9522
4 28.5128 36.6593 -50.2368
4 31.2282 33.9438 -50.2368
4 31.2282 36.6593 -52.9522
4 32.586 32.586 -54.31
4 32.586 35.3015 -51.5945
4 35.3015 32.586 -51.5945
4 35.3015 35.3015 -54.31
4 33.9438 33.9438 -52.9522
4 33.9438 36.6593 -50.2368
4 36.6593 33.9438 -50.2368
4 36.6593 36.6593 -52.9522
4 38.017 32.586 -54.31
4 38.017 35.3015 -51.5945
4 40.7325 32.586 -51.5945
4 40.7325 35.3015 -54.31
4 39.3747 33.9438 -52.9522
4 39.3747 36.6593 -50.2368
4 42.0902 33.9438 -50.2368
4 42.0902 36.6593 -52.9522
4 43.448 32.586 -54.31
4 43.448 35.3015 -51.5945
4 46.1635 32.586 -51.5945
4 46.1635 35.3015 -54.31
4 44.8058 33.9438 -52.9522
4 44.8058 36.6593 -50.2368
4 47.5213 33.9438 -50.2368
4 47.5213 36.6593 -52.9522
4 48.879 32.586 -54.31
4 48.879 35.3015 -51.5945
4 51.5945 32.586 -51.5945
4 51.5945 35.3015 -54.31
4 50.2368 33.9438 -52.9522
4 50.2368 36.6593 -50.2368
4 52.9522 33.9438 -50.2368
4 52.9522 36.6593 -52.9522
4 0 38.017 -54.31
4 0 40.7325 -51.5945
4 2.7155 38.017 -51.5945
4 2.7155 40.7325 -54.31
4 1.35775 39.3747 -52.9522
4 1.35775 42.0902 -50.2368
4 4.07325 39.3747 -50.2368
4 4.07325 42.0902 -52.9522
4 5.431 38.017 -54.31
4 5.431 40.7325 -51.5945
4 8.1465 38.017 -51.5945
4 8.1465 40.7325 -54.31
4 6.78875 39.3747 -52.9522
4 6.78875 42.0902 -50.2368
4 9.50425 39.3747 -50.2368
4 9.50425 42.0902 -52.9522
4 10.862 38.017 -54.31
4 10.862 40.7325 -51.5945
4 13.5775 38.017 -51.5945
4 13.5775 40.7325 -54.31
4 12.2197 39.3747 -52.9522
4 12.2197 42.0902 -50.2368
4 14.9352 39.3747 -50.2368
4 14.9352 42.0902 -52.9522
4 16.293 38.017 -54.31
4 16.293 40.7325 -51.5945
4 19.0085 38.017 -51.5945
4 19.0085 40.7325 -54.31
4 17.6507 39.3747 -52.9522
4 17.6507 42.0902 -50.2368
4 20.3663 39.3747 -50.2368
4 20.3663 42.0902 -52.9522
4 21.724 38.017 -54.31
4 21.724 40.7325 -51.5945
4 24.4395 38.017 -51.5945
4 24.4395 40.7325 -54.31
4 23.0817 39.3747 -52.9522
4 23.0817 42.0902 -50.2368
4 25.7973 39.3747 -50.2368
4 25.7973 42.0902 -52.9522
4 27.155 38.017 -54.31
4 27.155 40.7325 -51.5945
4 29.8705 38.017 -51.5945
4 29.8705 40.7325 -54.31
4 28.5128 39.3747 -52.9522
4 28.5128 42.0902 -50.2368
4 31.2282 39.3747 -50.2368
4 31.2282 42.0902 -52.9522
4 32.586 38.017 -54.31
4 32.586 40.7325 -51.5945
4 35.3015 38.017 -51.5945
4 35.3015 40.7325 -54.31
4 33.9438 39.3747 -52.9522
4 33.9438 42.0902 -50.2368
4 36.6593 39.3747 -50.2368
4 36.6593 42.0902 -52.9522
4 38.017 38.017 -54.31
4 38.017 40.7325 -51.5945
4 40.7325 38.017 -51.5945
4 40.7325 40.7325 -54.31
4 39.3747 39.3747 -52.9522
4 39.3747 42.0902 -50.2368
4 42.0902 39.3747 -50.2368
4 42.0902 42.0902 -52.9522
4 43.448 38.017 -54.31
4 43.448 40.7325 -51.5945
4 46.1635 38.017 -51.5945
4 46.1635 40.7325 -54.31
4 44.8058 39.3747 -52.9522
4 44.8058 42.0902 -50.2368
4 47.5213 39.3747 -50.2368
4 47.5213 42.0902 -52.9522
4 48.879 38.017 -54.31
4 48.879 40.7325 -51.5945
4 51.5945 38.017 -51.5945
4 51.5945 40.7325 -54.31
4 50.2368 39.3747 -52.9522
4 50.2368 42.0902 -50.2368
4 52.9522 39.3747 -50.2368
4 52.9522 42.0902 -52.9522
4 0 43.448 -54.31
4 0 46.1635 -51.5945
4 2.7155 43.448 -51.5945
4 2.7155 46.1635 -54.31
4 1.35775 44.8058 -52.9522
4 1.35775 47.5213 -50.2368
4 4.07325 44.8058 -50.2368
4 4.07325 47.5213 -52.9522
4 5.431 43.448 -54.31
4 5.431 46.1635 -51.5945
4 8.1465 43.448 -51.5945
4 8.1465 46.1635 -54.31
4 6.78875 44.8058 -52.9522
4 6.78875 47.5213 -50.2368
4 9.50425 44.8058 -50.2368
4 9.50425 47.5213 -52.9522
4 10.862 43.448 -54.31
4 10.862 46.1635 -51.5945
4 13.5775 43.448 -51.5945
4 13.5775 46.1635 -54.31
4 12.2197 44.8058 -52.9522
4 12.2197 47.5213 -50.2368
4 14.9352 44.8058 -50.2368
4 14.9352 47.5213 -52.9522
4 16.293 43.448 -54.31
4 16.293 46.1635 -51.5945
4 19.0085 43.448 -51.5945
4 19.0085 46.1635 -54.31
4 17.6507 44.8058 -52.9522
4 17.6507 47.5213 -50.2368
4 20.3663 44.8058 -50.2368
4 20.3663 47.5213 -52.9522
4 21.724 43.448 -54.31
4 21.724 46.1635 -51.5945
4 24.4395 43.448 -51.5945
4 24.4395 46.1635 -54.31
4 23.0817 44.8058 -52.9522
4 23.0817 47.5213 -50.2368
4 25.7973 44.8058 -50.2368
4 25.7973 47.5213 -52.9522
4 27.155 43.448 -54.31
4 27.155 46.1635 -51.5945
4 29.8705 43.448 -51.5945
4 29.8705 46.1635 -54.31
4 28.5128 44.8058 -52.9522
4 28.5128 47.5213 -50.2368
4 31.2282 44.8058 -50.2368
4 31.2282 47.5213 -52.9522
4 32.586 43.448 -54.31
4 32.586 46.1635 -51.5945
4 35.3015 43.448 -51.5945
4 35.3015 46.1635 -54.31
4 33.9438 44.8058 -52.9522
4 33.9438 47.5213 -50.2368
4 36.6593 44.8058 -50.2368
4 36.6593 47.5213 -52.9522
4 38.017 43.448 -54.31
4 38.017 46.1635 -51.5945
4 40.7325 43.448 -51.5945
4 40.7325 46.1635 -54.31
4 39.3747 44.8058 -52.9522
4 39.3747 47.5213 -50.2368
4 42.0902 44.8058 -50.2368
4 42.0902 47.5213 -52.9522
4 43.448 43.448 -54.31
4 43.448 46.1635 -51.5945
4 46.1635 43.448 -51.5945
4 46.1635 46.1635 -54.31
4 44.8058 44.8058 -52.9522
4 44.8058 47.5213 -50.2368
4 47.5213 44.8058 -50.2368
4 47.5213 47.5213 -52.9522
4 48.879 43.448 -54.31
4 48.879 46.1635 -51.5945
4 51.5945 43.448 -51.5945
4 51.5945 46.1635 -54.31
4 50.2368 44.8058 -52.9522
4 50.2368 47.5213 -50.2368
4 52.9522 44.8058 -50.2368
4 52.9522 47.5213 -52.9522
4 0 48.879 -54.31
4 0 51.5945 -51.5945
4 2.7155 48.879 -51.5945
4 2.7155 51.5945 -54.31
4 1.35775 50.2368 -52.9522
4 1.35775 52.9522 -50.2368
4 4.07325 50.2368 -50.2368
4 4.07325 52.9522 -52.9522
4 5.431 48.879 -54.31
4 5.431 51.5945 -51.5945
4 8.1465 48.879 -51.5945
4 8.1465 51.5945 -54.31
4 6.78875 50.2368 -52.9522
4 6.78875 52.9522 -50.2368
4 9.50425 50.2368 -50.2368
4 9.50425 52.9522 -52.9522
4 10.862 48.879 -54.31
4 10.862 51.5945 -51.5945
4 13.5775 48.879 -51.5945
4 13.5775 51.5945 -54.31
4 12.2197 50.2368 -52.9522
4 12.2197 52.9522 -50.2368
4 14.9352 50.2368 -50.2368
4 14.9352 52.9522 -52.9522
4 16.293 48.879 -54.31
4 16.293 51.5945 -51.5945
4 19.0085 48.879 -51.5945
4 19.0085 51.5945 -54.31
4 17.6507 50.2368 -52.9522
4 17.6507 52.9522 -50.2368
4 20.3663 50.2368 -50.2368
4 20.3663 52.9522 -52.9522
4 21.724 48.879 -54.31
4 21.724 51.5945 -51.5945
4 24.4395 48.879 -51.5945
4 24.4395 51.5945 -54.31
4 23.0817 50.2368 -52.9522
4 23.0817 52.9522 -50.2368
4 25.7973 50.2368 -50.2368
4 25.7973 52.9522 -52.9522
4 27.155 48.879 -54.31
4 27.155 51.5945 -51.5945
4 29.8705 48.879 -51.5945
4 29.8705 51.5945 -54.31
4 28.5128 50.2368 -52.9522
4 28.5128 52.9522 -50.2368
4 31.2282 50.2368 -50.2368
4 31.2282 52.9522 -52.9522
4 32.586 48.879 -54.31
4 32.586 51.5945 -51.5945
4 35.3015 48.879 -51.5945
4 35.3015 51.5945 -54.31
4 33.9438 50.2368 -52.9522
4 33.9438 52.9522 -50.2368
4 36.6593 50.2368 -50.2368
4 36.6593 52.9522 -52.9522
4 38.017 48.879 -54.31
4 38.017 51.5945 -51.5945
4 40.7325 48.879 -51.5945
4 40.7325 51.5945 -54.31
4 39.3747 50.2368 -52.9522
4 39.3747 52.9522 -50.2368
4 42.0902 50.2368 -50.2368
4 42.0902 52.9522 -52.9522
4 43.448 48.879 -54.31
4 43.448 51.5945 -51.5945
4 46.1635 48.879 -51.5945
4 46.1635 51.5945 -54.31
4 44.8058 50.2368 -52.9522
4 44.8058 52.9522 -50.2368
4 47.5213 50.2368 -50.2368
4 47.5213 52.9522 -52.9522
4 48.879 48.879 -54.31
4 48.879 51.5945 -51.5945
4 51.5945 48.879 -51.5945
4 51.5945 51.5945 -54.31
4 50.2368 50.2368 -52.9522
4 50.2368 52.9522 -50.2368
4 52.9522 50.2368 -50.2368
4 52.9522 52.9522 -52.9522
4 0 0 -48.879
3 2.7131 2.77246 -16.7689
4 2.7155 2.7155 -48.879
4 1.35775 1.35775 -47.5213
3 1.26507 5.97714 -16.3051
3 4.14237 4.1362 -15.4541
4 4.07325 4.07325 -47.5213
4 5.431 0 -48.879
3 5.52869 5.4876 -16.8163
3 8.10725 2.66163 -16.8471
4 8.1465 2.7155 -48.879
4 6.78875 1.35775 -47.5213
3 6.7248 6.83911 -15.4268
3 9.49134 4.01463 -15.4227
4 9.50425 4.07325 -47.5213
4 10.862 0 -48.879
3 10.8492 5.4428 -16.8484
3 13.5609 2.63915 -16.8629
4 13.5775 2.7155 -48.879
4 12.2197 1.35775 -47.5213
3 12.2646 6.73135 -15.4809
3 14.9877 4.01775 -15.5215
4 14.9352 4.07325 -47.5213
4 16.293 0 -48.879
3 16.2771 5.38106 -16.8649
1 19.1302 2.7812 -16.8875
4 19.0085 2.7155 -48.879
4 17.6507 1.35775 -47.5213
1 17.6319 6.73463 -15.4896
1 20.4082 4.05556 -15.4979
4 20.3663 4.07325 -47.5213
4 21.724 0 -48.879
1 21.8108 5.4677 -16.872
1 24.4594 2.71169 -16.8925
4 24.4395 2.7155 -48.879
4 23.0817 1.35775 -47.5213
1 23.2072 6.73499 -15.5508
1 25.8363 4.07806 -15.5488
4 25.7973 4.07325 -47.5213
4 27.155 0 -48.879
1 27.1605 5.40831 -16.8779
1 29.8989 2.68732 -16.853
4 29.8705 2.7155 -48.879
4 28.5128 1.35775 -47.5213
1 28.5255 6.81953 -15.6329
1 31.3107 4.04347 -15.6232
4 31.2282 4.07325 -47.5213
4 32.586 0 -48.879
1 32.6355 5.41921 -16.8406
1 35.39 2.83284 -16.9375
4 35.3015 2.7155 -48.879
4 33.9438 1.35775 -47.5213
1 34.042 6.78012 -15.62
1 36.8718 4.03513 -15.562
4 36.6593 4.07325 -47.5213
4 38.017 0 -48.879
1 38.1256 5.54786 -16.8733
1 40.7594 2.72105 -16.9086
4 40.7325 2.7155 -48.879
4 39.3747 1.35775 -47.5213
1 39.6053 6.80923 -15.6653
1 42.3346 4.08602 -15.7635
4 42.0902 4.07325 -47.5213
4 43.448 0 -48.879
1 43.5749 5.47637 -16.976
1 46.3216 2.90858 -16.8321
4 46.1635 2.7155 -48.879
4 44.8058 1.35775 -47.5213
1 45.1104 6.75128 -15.6663
1 48.0346 4.145 -15.7287
4 47.5213 4.07325 -47.5213
4 48.879 0 -48.879
1 49.1539 5.65065 -16.9998
1 52.2379 3.24229 -17.0069
4 51.5945 2.7155 -48.879
4 50.2368 1.35775 -47.5213
1 51.0585 7.07706 -16.4459
1 53.6498 5.25221 -16.7319
4 52.9522 4.07325 -47.5213
4 0 5.431 -48.879
3 2.51488 7.93736 -16.8393
4 2.7155 8.1465 -48.879
4 1.35775 6.78875 -47.5213
3 1.19913 11.3313 -16.1978
3 3.88388 9.3332 -15.4099
4 4.07325 9.50425 -47.5213
4 5.431 5.431 -48.879
3 5.33091 10.8142 -16.8198
3 8.14902 8.12009 -16.73
4 8.1465 8.1465 -48.879
4 6.78875 6.78875 -47.5213
3 6.67072 12.245 -15.5305
3 9.4633 9.50758 -15.4556
4 9.50425 9.50425 -47.5213
4 10.862 5.431 -48.879
3 10.8432 10.8906 -16.7672
3 13.5915 8.16197 -16.8385
4 13.5775 8.1465 -48.879
4 12.2197 6.78875 -47.5213
3 12.2742 12.1215 -15.4144
3 14.9497 9.49205 -15.5534
4 14.9352 9.50425 -47.5213
4 16.293 5.431 -48.879
3 16.3484 10.8791 -16.8319
1 18.9774 8.14239 -16.8539
4 19.0085 8.1465 -48.879
4 17.6507 6.78875 -47.5213
1 17.7398 12.1398 -15.5195
1 20.5016 9.45282 -15.4903
4 20.3663 9.50425 -47.5213
4 21.724 5.431 -48.879
1 21.7621 10.9053 -16.7799
1 24.4965 8.10964 -16.8768
4 24.4395 8.1465 -48.879
4 23.0817 6.78875 -47.5213
1 23.1572 12.2894 -15.5333
1 25.8042 9.60521 -15.5688
4 25.7973 9.50425 -47.5213
4 27.155 5.431 -48.879
1 27.2213 10.8977 -16.8378
1 29.8979 8.25877 -16.9142
4 29.8705 8.1465 -48.879
4 28.5128 6.78875 -47.5213
1 28.6606 12.2407 -15.5389
1 31.3848 9.56928 -15.5853
4 31.2282 9.50425 -47.5213
4 32.586 5.431 -48.879
1 32.7191 10.9615 -16.909
1 35.3596 8.20339 -16.8613
4 35.3015 8.1465 -48.879
4 33.9438 6.78875 -47.5213
1 34.188 12.3008 -15.5863
1 36.8626 9.56456 -15.5727
4 36.6593 9.50425 -47.5213
4 38.017 5.431 -48.879
1 38.1912 10.9911 -16.873
1 40.7665 8.3065 -16.8694
4 40.7325 8.1465 -48.879
4 39.3747 6.78875 -47.5213
1 39.5785 12.2468 -15.6044
1 42.315 9.50404 -15.6204
4 42.0902 9.50425 -47.5213
4 43.448 5.431 -48.879
1 43.5159 10.9766 -16.8579
1 46.3271 8.20815 -16.943
4 46.1635 8.1465 -48.879
4 44.8058 6.78875 -47.5213
1 44.9787 12.2035 -15.6027
1 47.9988 9.56945 -15.8196
4 47.5213 9.50425 -47.5213
4 48.879 5.431 -48.879
1 49.1977 11.1459 -16.9267
1 52.4337 8.94106 -17.3537
4 51.5945 8.1465 -48.879
4 50.2368 6.78875 -47.5213
1 50.7425 12.3865 -15.8377
1 53.8688 10.7074 -16.5189
4 52.9522 9.50425 -47.5213
4 0 10.862 -48.879
3 2.49737 13.3772 -16.8248
4 2.7155 13.5775 -48.879
4 1.35775 12.2197 -47.5213
3 1.35162 17.885 -14.924
3 3.68981 14.8261 -15.4898
4 4.07325 14.9352 -47.5213
4 5.431 10.862 -48.879
3 5.29098 16.2113 -16.7718
3 8.11828 13.5448 -16.8512
4 8.1465 13.5775 -48.879
4 6.78875 12.2197 -47.5213
3 6.67461 17.5613 -15.4691
3 9.54775 14.8802 -15.5803
4 9.50425 14.9352 -47.5213
4 10.862 10.862 -48.879
3 10.9726 16.305 -16.8344
3 13.4719 13.5513 -16.8646
4 13.5775 13.5775 -48.879
4 12.2197 12.2197 -47.5213
3 12.3772 17.6243 -15.472
3 14.8739 14.8243 -15.472
4 14.9352 14.9352 -47.5213
4 16.293 10.862 -48.879
3 16.2492 16.3053 -16.8546
1 19.0923 13.5794 -16.793
4 19.0085 13.5775 -48.879
4 17.6507 12.2197 -47.5213
1 17.7906 17.5596 -15.5124
1 20.4923 14.9145 -15.5142
4 20.3663 14.9352 -47.5213
4 21.724 10.862 -48.879
1 21.8133 16.3487 -16.8566
1 24.4693 13.6395 -16.7881
4 24.4395 13.5775 -48.879
4 23.0817 12.2197 -47.5213
1 23.0956 17.7117 -15.5172
1 25.8215 15.0182 -15.5696
4 25.7973 14.9352 -47.5213
4 27.155 10.862 -48.879
1 27.2165 16.4206 -16.8675
1 29.9209 13.6019 -16.877
4 29.8705 13.5775 -48.879
4 28.5128 12.2197 -47.5213
1 28.6545 17.7619 -15.451
1 31.3823 14.9488 -15.5598
4 31.2282 14.9352 -47.5213
4 32.586 10.862 -48.879
1 32.7171 16.3807 -16.8475
1 35.3949 13.7048 -16.9186
4 35.3015 13.5775 -48.879
4 33.9438 12.2197 -47.5213
1 34.1191 17.7064 -15.4856
1 36.8383 14.9808 -15.6564
4 36.6593 14.9352 -47.5213
4 38.017 10.862 -48.879
1 38.1806 16.4208 -16.884
1 40.8472 13.6546 -16.8564
4 40.7325 13.5775 -48.879
4 39.3747 12.2197 -47.5213
1 39.5896 17.7692 -15.5803
1 42.2976 14.9539 -15.622
4 42.0902 14.9352 -47.5213
4 43.448 10.862 -48.879
1 43.5053 16.3785 -16.9629
1 46.2655 13.6404 -16.8697
4 46.1635 13.5775 -48.879
4 44.8058 12.2197 -47.5213
1 44.9677 17.5915 -15.6225
1 47.8116 14.9565 -15.7073
4 47.5213 14.9352 -47.5213
4 48.879 10.862 -48.879
1 48.958 16.4513 -16.8948
1 51.9376 13.9807 -16.9629
4 51.5945 13.5775 -48.879
4 50.2368 12.2197 -47.5213
1 50.561 17.8768 -15.9196
1 53.4949 15.8236 -16.6629
4 52.9522 14.9352 -47.5213
4 0 16.293 -48.879
3 2.67106 18.8898 -16.7526
4 2.7155 19.0085 -48.879
4 1.35775 17.6507 -47.5213
3 1.2563 22.1817 -16.2035
3 4.14954 20.2795 -15.4434
4 4.07325 20.3663 -47.5213
4 5.431 16.293 -48.879
3 5.41743 21.7384 -16.8068
3 8.0733 18.945 -16.8339
4 8.1465 19.0085 -48.879
4 6.78875 17.6507 -47.5213
3 6.72247 23.0787 -15.4067
3 9.44297 20.3184 -15.4725
4 9.50425 20.3663 -47.5213
4 10.862 16.293 -48.879
3 10.7975 21.634 -16.8675
3 13.6549 19.0335 -16.8295
4 13.5775 19.0085 -48.879
4 12.2197 17.6507 -47.5213
3 12.2043 22.9938 -15.4957
3 15.0259 20.4264 -15.4683
4 14.9352 20.3663 -47.5213
4 16.293 16.293 -48.879
3 16.3179 21.8131 -16.785
1 19.038 18.9934 -16.9064
4 19.0085 19.0085 -48.879
4 17.6507 17.6507 -47.5213
1 17.7206 23.0849 -15.4792
1 20.369 20.3697 -15.5321
4 20.3663 20.3663 -47.5213
4 21.724 16.293 -48.879
1 21.7415 21.6805 -16.8304
1 24.5258 19.0595 -16.8539
4 24.4395 19.0085 -48.879
4 23.0817 17.6507 -47.5213
1 23.1585 23.0799 -15.536
1 25.9133 20.4503 -15.4655
4 25.7973 20.3663 -47.5213
4 27.155 16.293 -48.879
1 27.183 21.7673 -16.773
1 29.9522 19.1375 -16.8348
4 29.8705 19.0085 -48.879
4 28.5128 17.6507 -47.5213
1 28.5249 23.1953 -15.4319
1 31.3084 20.4742 -15.5195
4 31.2282 20.3663 -47.5213
4 32.586 16.293 -48.879
1 32.7192 21.8222 -16.8029
1 35.3189 18.9926 -16.8988
4 35.3015 19.0085 -48.879
4 33.9438 17.6507 -47.5213
1 34.0496 23.1731 -15.5418
1 36.745 20.3585 -15.7942
4 36.6593 20.3663 -47.5213
4 38.017 16.293 -48.879
1 38.0809 21.763 -17.0235
1 40.8262 19.1539 -16.8701
4 40.7325 19.0085 -48.879
4 39.3747 17.6507 -47.5213
1 39.4531 23.0146 -15.7488
1 42.282 20.419 -15.6853
4 42.0902 20.3663 -47.5213
4 43.448 16.293 -48.879
1 43.5322 21.7842 -16.96
1 46.2528 19.1333 -16.8001
4 46.1635 19.0085 -48.879
4 44.8058 17.6507 -47.5213
1 45.0654 23.0874 -15.6771
1 47.8923 20.5295 -15.8493
4 47.5213 20.3663 -47.5213
4 48.879 16.293 -48.879
1 49.1771 21.9706 -17.0676
1 51.9986 19.4109 -16.9751
4 51.5945 19.0085 -48.879
4 50.2368 17.6507 -47.5213
1 50.9306 23.2679 -15.9555
1 53.5826 21.2821 -16.5307
4 52.9522 20.3663 -47.5213
4 0 21.724 -48.879
3 2.54812 24.2137 -16.8591
4 2.7155 24.4395 -48.879
4 1.35775 23.0817 -47.5213
3 1.24611 28.8914 -15.1863
3 3.83823 25.7049 -15.5356
4 4.07325 25.7973 -47.5213
4 5.431 21.724 -48.879
3 5.3426 27.0567 -16.7871
3 8.14496 24.3836 -16.8576
4 8.1465 24.4395 -48.879
4 6.78875 23.0817 -47.5213
3 6.7657 28.4842 -15.4926
3 9.43116 25.7665 -15.4361
4 9.50425 25.7973 -47.5213
4 10.862 21.724 -48.879
3 10.8171 27.1195 -16.8036
3 13.6007 24.3913 -16.7719
4 13.5775 24.4395 -48.879
4 12.2197 23.0817 -47.5213
3 12.159 28.4596 -15.4447
3 15.0466 25.7639 -15.466
4 14.9352 25.7973 -47.5213
4 16.293 21.724 -48.879
3 16.384 27.1351 -16.7465
1 19.0078 24.4733 -16.8105
4 19.0085 24.4395 -48.879
4 17.6507 23.0817 -47.5213
1 17.6921 28.6117 -15.4984
1 20.4357 25.8627 -15.4867
4 20.3663 25.7973 -47.5213
4 21.724 21.724 -48.879
1 21.7898 27.1829 -16.841
1 24.4694 24.4762 -16.8863
4 24.4395 24.4395 -48.879
4 23.0817 23.0817 -47.5213
1 23.1516 28.4613 -15.4345
1 25.7982 25.8599 -15.5191
4 25.7973 25.7973 -47.5213
4 27.155 21.724 -48.879
1 27.1686 27.19 -16.8401
1 29.9183 24.4791 -16.7849
4 29.8705 24.4395 -48.879
4 28.5128 23.0817 -47.5213
1 28.6221 28.4686 -15.4776
1 31.2003 25.9074 -15.4373
4 31.2282 25.7973 -47.5213
4 32.586 21.724 -48.879
1 32.566 27.135 -16.8842