15589
 Atoms. Timestep: 10000
4 0 0 -54.31
4 0 2.7155 -51.5945
4 2.7155 0 -51.5945
4 2.7155 2.7155 -54.31
4 1.35775 1.35775 -52.9522
4 1.35775 4.07325 -50.2368
4 4.07325 1.35775 -50.2368
4 4.07325 4.07325 -52.9522
4 5.431 0 -54.31
4 5.431 2.7155 -51.5945
4 8.1465 0 -51.5945
4 8.1465 2.7155 -54.31
4 6.78875 1.35775 -52.9522
4 6.78875 4.07325 -50.2368
4 9.50425 1.35775 -50.2368
4 9.50425 4.07325 -52.9522
4 10.862 0 -54.31
4 10.862 2.7155 -51.5945
4 13.5775 0 -51.5945
4 13.5775 2.7155 -54.31
4 12.2197 1.35775 -52.9522
4 12.2197 4.07325 -50.2368
4 14.9352 1.35775 -50.2368
4 14.9352 4.07325 -52.9522
4 16.293 0 -54.31
4 16.293 2.7155 -51.5945
4 19.0085 0 -51.5945
4 19.0085 2.7155 -54.31
4 17.6507 1.35775 -52.9522
4 17.6507 4.07325 -50.2368
4 20.3663 1.35775 -50.2368
4 20.3663 4.07325 -52.9522
4 21.724 0 -54.31
4 21.724 2.7155 -51.5945
4 24.4395 0 -51.5945
4 24.4395 2.7155 -54.31
4 23.0817 1.35775 -52.9522
4 23.0817 4.07325 -50.2368
4 25.7973 1.35775 -50.2368
4 25.7973 4.07325 -52.9522
4 27.155 0 -54.31
4 27.155 2.7155 -51.5945
4 29.8705 0 -51.5945
4 29.8705 2.7155 -54.31
4 28.5128 1.35775 -52.9522
4 28.5128 4.07325 -50.2368
4 31.2282 1.35775 -50.2368
4 31.2282 4.07325 -52.9522
4 32.586 0 -54.31
4 32.586 2.7155 -51.5945
4 35.3015 0 -51.5945
4 35.3015 2.7155 -54.31
4 33.9438 1.35775 -52.9522
4 33.9438 4.07325 -50.2368
4 36.6593 1.35775 -50.2368
4 36.6593 4.07325 -52.9522
4 38.017 0 -54.31
4 38.017 2.7155 -51.5945
4 40.7325 0 -51.5945
4 40.7325 2.7155 -54.31
4 39.3747 1.35775 -52.9522
4 39.3747 4.07325 -50.2368
4 42.0902 1.35775 -50.2368
4 42.0902 4.07325 -52.9522
4 43.448 0 -54.31
4 43.448 2.7155 -51.5945
4 46.1635 0 -51.5945
4 46.1635 2.7155 -54.31
4 44.8058 1.35775 -52.9522
4 44.8058 4.07325 -50.2368
4 47.5213 1.35775 -50.2368
4 47.5213 4.07325 -52.9522
4 48.879 0 -54.31
4 48.879 2.7155 -51.5945
4 51.5945 0 -51.5945
4 51.5945 2.7155 -54.31
4 50.2368 1.35775 -52.9522
4 50.2368 4.07325 -50.2368
4 52.9522 1.35775 -50.2368
4 52.9522 4.07325 -52.9522
4 0 5.431 -54.31
4 0 8.1465 -51.5945
4 2.7155 5.431 -51.5945
4 2.7155 8.1465 -54.31
4 1.35775 6.78875 -52.9522
4 1.35775 9.50425 -50.2368
4 4.07325 6.78875 -50.2368
4 4.07325 9.50425 -52.9522
4 5.431 5.431 -54.31
4 5.431 8.1465 -51.5945
4 8.1465 5.431 -51.5945
4 8.1465 8.1465 -54.31
4 6.78875 6.78875 -52.9522
4 6.78875 9.50425 -50.2368
4 9.50425 6.78875 -50.2368
4 9.50425 9.50425 -52.9522
4 10.862 5.431 -54.31
4 10.862 8.1465 -51.5945
4 13.5775 5.431 -51.5945
4 13.5775 8.1465 -54.31
4 12.2197 6.78875 -52.9522
4 12.2197 9.50425 -50.2368
4 14.9352 6.78875 -50.2368
4 14.9352 9.50425 -52.9522
4 16.293 5.431 -54.31
4 16.293 8.1465 -51.5945
4 19.0085 5.431 -51.5945
4 19.0085 8.1465 -54.31
4 17.6507 6.78875 -52.9522
4 17.6507 9.50425 -50.2368
4 20.3663 6.78875 -50.2368
4 20.3663 9.50425 -52.9522
4 21.724 5.431 -54.31
4 21.724 8.1465 -51.5945
4 24.4395 5.431 -51.5945
4 24.4395 8.1465 -54.31
4 23.0817 6.78875 -52.9522
4 23.0817 9.50425 -50.2368
4 25.7973 6.78875 -50.2368
4 25.7973 9.50425 -52.9522
4 27.155 5.431 -54.31
4 27.155 8.1465 -51.5945
4 29.8705 5.431 -51.5945
4 29.8705 8.1465 -54.31
4 28.5128 6.78875 -52.9522
4 28.5128 9.50425 -50.2368
4 31.2282 6.78875 -50.2368
4 31.2282 9.50425 -52.9522
4 32.586 5.431 -54.31
4 32.586 8.1465 -51.5945
4 35.3015 5.431 -51.5945
4 35.3015 8.1465 -54.31
4 33.9438 6.78875 -52.9522
4 33.9438 9.50425 -50.2368
4 36.6593 6.78875 -50.2368
4 36.6593 9.50425 -52.9522
4 38.017 5.431 -54.31
4 38.017 8.1465 -51.5945
4 40.7325 5.431 -51.5945
4 40.7325 8.1465 -54.31
4 39.3747 6.78875 -52.9522
4 39.3747 9.50425 -50.2368
4 42.0902 6.78875 -50.2368
4 42.0902 9.50425 -52.9522
4 43.448 5.431 -54.31
4 43.448 8.1465 -51.5945
4 46.1635 5.431 -51.5945
4 46.1635 8.1465 -54.31
4 44.8058 6.78875 -52.9522
4 44.8058 9.50425 -50.2368
4 47.5213 6.78875 -50.2368
4 47.5213 9.50425 -52.9522
4 48.879 5.431 -54.31
4 48.879 8.1465 -51.5945
4 51.5945 5.431 -51.5945
4 51.5945 8.1465 -54.31
4 50.2368 6.78875 -52.9522
4 50.2368 9.50425 -50.2368
4 52.9522 6.78875 -50.2368
4 52.9522 9.50425 -52.9522
4 0 10.862 -54.31
4 0 13.5775 -51.5945
4 2.7155 10.862 -51.5945
4 2.7155 13.5775 -54.31
4 1.35775 12.2197 -52.9522
4 1.35775 14.9352 -50.2368
4 4.07325 12.2197 -50.2368
4 4.07325 14.9352 -52.9522
4 5.431 10.862 -54.31
4 5.431 13.5775 -51.5945
4 8.1465 10.862 -51.5945
4 8.1465 13.5775 -54.31
4 6.78875 12.2197 -52.9522
4 6.78875 14.9352 -50.2368
4 9.50425 12.2197 -50.2368
4 9.50425 14.9352 -52.9522
4 10.862 10.862 -54.31
4 10.862 13.5775 -51.5945
4 13.5775 10.862 -51.5945
4 13.5775 13.5775 -54.31
4 12.2197 12.2197 -52.9522
4 12.2197 14.9352 -50.2368
4 14.9352 12.2197 -50.2368
4 14.9352 14.9352 -52.9522
4 16.293 10.862 -54.31
4 16.293 13.5775 -51.5945
4 19.0085 10.862 -51.5945
4 19.0085 13.5775 -54.31
4 17.6507 12.2197 -52.9522
4 17.6507 14.9352 -50.2368
4 20.3663 12.2197 -50.2368
4 20.3663 14.9352 -52.9522
4 21.724 10.862 -54.31
4 21.724 13.5775 -51.5945
4 24.4395 10.862 -51.5945
4 24.4395 13.5775 -54.31
4 23.0817 12.2197 -52.9522
4 23.0817 14.9352 -50.2368
4 25.7973 12.2197 -50.2368
4 25.7973 14.9352 -52.9522
4 27.155 10.862 -54.31
4 27.155 13.5775 -51.5945
4 29.8705 10.862 -51.5945
4 29.8705 13.5775 -54.31
4 28.5128 12.2197 -52.9522
4 28.5128 14.9352 -50.2368
4 31.2282 12.2197 -50.2368
4 31.2282 14.9352 -52.9522
4 32.586 10.862 -54.31
4 32.586 13.5775 -51.5945
4 35.3015 10.862 -51.5945
4 35.3015 13.5775 -54.31
4 33.9438 12.2197 -52.9522
4 33.9438 14.9352 -50.2368
4 36.6593 12.2197 -50.2368
4 36.6593 14.9352 -52.9522
4 38.017 10.862 -54.31
4 38.017 13.5775 -51.5945
4 40.7325 10.862 -51.5945
4 40.7325 13.5775 -54.31
4 39.3747 12.2197 -52.9522
4 39.3747 14.9352 -50.2368
4 42.0902 12.2197 -50.2368
4 42.0902 14.9352 -52.9522
4 43.448 10.862 -54.31
4 43.448 13.5775 -51.5945
4 46.1635 10.862 -51.5945
4 46.1635 13.5775 -54.31
4 44.8058 12.2197 -52.9522
4 44.8058 14.9352 -50.2368
4 47.5213 12.2197 -50.2368
4 47.5213 14.9352 -52.9522
4 48.879 10.862 -54.31
4 48.879 13.5775 -51.5945
4 51.5945 10.862 -51.5945
4 51.5945 13.5775 -54.31
4 50.2368 12.2197 -52.9522
4 50.2368 14.9352 -50.2368
4 52.9522 12.2197 -50.2368
4 52.9522 14.9352 -52.9522
4 0 16.293 -54.31
4 0 19.0085 -51.5945
4 2.7155 16.293 -51.5945
4 2.7155 19.0085 -54.31
4 1.35775 17.6507 -52.9522
4 1.35775 20.3663 -50.2368
4 4.07325 17.6507 -50.2368
4 4.07325 20.3663 -52.9522
4 5.431 16.293 -54.31
4 5.431 19.0085 -51.5945
4 8.1465 16.293 -51.5945
4 8.1465 19.0085 -54.31
4 6.78875 17.6507 -52.9522
4 6.78875 20.3663 -50.2368
4 9.50425 17.6507 -50.2368
4 9.50425 20.3663 -52.9522
4 10.862 16.293 -54.31
4 10.862 19.0085 -51.5945
4 13.5775 16.293 -51.5945
4 13.5775 19.0085 -54.31
4 12.2197 17.6507 -52.9522
4 12.2197 20.3663 -50.2368
4 14.9352 17.6507 -50.2368
4 14.9352 20.3663 -52.9522
4 16.293 16.293 -54.31
4 16.293 19.0085 -51.5945
4 19.0085 16.293 -51.5945
4 19.0085 19.0085 -54.31
4 17.6507 17.6507 -52.9522
4 17.6507 20.3663 -50.2368
4 20.3663 17.6507 -50.2368
4 20.3663 20.3663 -52.9522
4 21.724 16.293 -54.31
4 21.724 19.0085 -51.5945
4 24.4395 16.293 -51.5945
4 24.4395 19.0085 -54.31
4 23.0817 17.6507 -52.9522
4 23.0817 20.3663 -50.2368
4 25.7973 17.6507 -50.2368
4 25.7973 20.3663 -52.9522
4 27.155 16.293 -54.31
4 27.155 19.0085 -51.5945
4 29.8705 16.293 -51.5945
4 29.8705 19.0085 -54.31
4 28.5128 17.6507 -52.9522
4 28.5128 20.3663 -50.2368
4 31.2282 17.6507 -50.2368
4 31.2282 20.3663 -52.9522
4 32.586 16.293 -54.31
4 32.586 19.0085 -51.5945
4 35.3015 16.293 -51.5945
4 35.3015 19.0085 -54.31
4 33.9438 17.6507 -52.9522
4 33.9438 20.3663 -50.2368
4 36.6593 17.6507 -50.2368
4 36.6593 20.3663 -52.9522
4 38.017 16.293 -54.31
4 38.017 19.0085 -51.5945
4 40.7325 16.293 -51.5945
4 40.7325 19.0085 -54.31
4 39.3747 17.6507 -52.9522
4 39.3747 20.3663 -50.2368
4 42.0902 17.6507 -50.2368
4 42.0902 20.3663 -52.9522
4 43.448 16.293 -54.31
4 43.448 19.0085 -51.5945
4 46.1635 16.293 -51.5945
4 46.1635 19.0085 -54.31
4 44.8058 17.6507 -52.9522
4 44.8058 20.3663 -50.2368
4 47.5213 17.6507 -50.2368
4 47.5213 20.3663 -52.9522
4 48.879 16.293 -54.31
4 48.879 19.0085 -51.5945
4 51.5945 16.293 -51.5945
4 51.5945 19.0085 -54.31
4 50.2368 17.6507 -52.9522
4 50.2368 20.3663 -50.2368
4 52.9522 17.6507 -50.2368
4 52.9522 20.3663 -52.9522
4 0 21.724 -54.31
4 0 24.4395 -51.5945
4 2.7155 21.724 -51.5945
4 2.7155 24.4395 -54.31
4 1.35775 23.0817 -52.9522
4 1.35775 25.7973 -50.2368
4 4.07325 23.0817 -50.2368
4 4.07325 25.7973 -52.9522
4 5.431 21.724 -54.31
4 5.431 24.4395 -51.5945
4 8.1465 21.724 -51.5945
4 8.1465 24.4395 -54.31
4 6.78875 23.0817 -52.9522
4 6.78875 25.7973 -50.2368
4 9.50425 23.0817 -50.2368
4 9.50425 25.7973 -52.9522
4 10.862 21.724 -54.31
4 10.862 24.4395 -51.5945
4 13.5775 21.724 -51.5945
4 13.5775 24.4395 -54.31
4 12.2197 23.0817 -52.9522
4 12.2197 25.7973 -50.2368
4 14.9352 23.0817 -50.2368
4 14.9352 25.7973 -52.9522
4 16.293 21.724 -54.31
4 16.293 24.4395 -51.5945
4 19.0085 21.724 -51.5945
4 19.0085 24.4395 -54.31
4 17.6507 23.0817 -52.9522
4 17.6507 25.7973 -50.2368
4 20.3663 23.0817 -50.2368
4 20.3663 25.7973 -52.9522
4 21.724 21.724 -54.31
4 21.724 24.4395 -51.5945
4 24.4395 21.724 -51.5945
4 24.4395 24.4395 -54.31
4 23.0817 23.0817 -52.9522
4 23.0817 25.7973 -50.2368
4 25.7973 23.0817 -50.2368
4 25.7973 25.7973 -52.9522
4 27.155 21.724 -54.31
4 27.155 24.4395 -51.5945
4 29.8705 21.724 -51.5945
4 29.8705 24.4395 -54.31
4 28.5128 23.0817 -52.9522
4 28.5128 25.7973 -50.2368
4 31.2282 23.0817 -50.2368
4 31.2282 25.7973 -52.9522
4 32.586 21.724 -54.31
4 32.586 24.4395 -51.5945
4 35.3015 21.724 -51.5945
4 35.3015 24.4395 -54.31
4 33.9438 23.0817 -52.9522
4 33.9438 25.7973 -50.2368
4 36.6593 23.0817 -50.2368
4 36.6593 25.7973 -52.9522
4 38.017 21.724 -54.31
4 38.017 24.4395 -51.5945
4 40.7325 21.724 -51.5945
4 40.7325 24.4395 -54.31
4 39.3747 23.0817 -52.9522
4 39.3747 25.7973 -50.2368
4 42.0902 23.0817 -50.2368
4 42.0902 25.7973 -52.9522
4 43.448 21.724 -54.31
4 43.448 24.4395 -51.5945
4 46.1635 21.724 -51.5945
4 46.1635 24.4395 -54.31
4 44.8058 23.0817 -52.9522
4 44.8058 25.7973 -50.2368
4 47.5213 23.0817 -50.2368
4 47.5213 25.7973 -52.9522
4 48.879 21.724 -54.31
4 48.879 24.4395 -51.5945
4 51.5945 21.724 -51.5945
4 51.5945 24.4395 -54.31
4 50.2368 23.0817 -52.9522
4 50.2368 25.7973 -50.2368
4 52.9522 23.0817 -50.2368
4 52.9522 25.7973 -52.9522
4 0 27.155 -54.31
4 0 29.8705 -51.5945
4 2.7155 27.155 -51.5945
4 2.7155 29.8705 -54.31
4 1.35775 28.5128 -52.9522
4 1.35775 31.2282 -50.2368
4 4.07325 28.5128 -50.2368
4 4.07325 31.2282 -52.9522
4 5.431 27.155 -54.31
4 5.431 29.8705 -51.5945
4 8.1465 27.155 -51.5945
4 8.1465 29.8705 -54.31
4 6.78875 28.5128 -52.9522
4 6.78875 31.2282 -50.2368
4 9.50425 28.5128 -50.2368
4 9.50425 31.2282 -52.9522
4 10.862 27.155 -54.31
4 10.862 29.8705 -51.5945
4 13.5775 27.155 -51.5945
4 13.5775 29.8705 -54.31
4 12.2197 28.5128 -52.9522
4 12.2197 31.2282 -50.2368
4 14.9352 28.5128 -50.2368
4 14.9352 31.2282 -52.9522
4 16.293 27.155 -54.31
4 16.293 29.8705 -51.5945
4 19.0085 27.155 -51.5945
4 19.0085 29.8705 -54.31
4 17.6507 28.5128 -52.9522
4 17.6507 31.2282 -50.2368
4 20.3663 28.5128 -50.2368
4 20.3663 31.2282 -52.9522
4 21.724 27.155 -54.31
4 21.724 29.8705 -51.5945
4 24.4395 27.155 -51.5945
4 24.4395 29.8705 -54.31
4 23.0817 28.5128 -52.9522
4 23.0817 31.2282 -50.2368
4 25.7973 28.5128 -50.2368
4 25.7973 31.2282 -52.9522
4 27.155 27.155 -54.31
4 27.155 29.8705 -51.5945
4 29.8705 27.155 -51.5945
4 29.8705 29.8705 -54.31
4 28.5128 28.5128 -52.9522
4 28.5128 31.2282 -50.2368
4 31.2282 28.5128 -50.2368
4 31.2282 31.2282 -52.9522
4 32.586 27.155 -54.31
4 32.586 29.8705 -51.5945
4 35.3015 27.155 -51.5945
4 35.3015 29.8705 -54.31
4 33.9438 28.5128 -52.9522
4 33.9438 31.2282 -50.2368
4 36.6593 28.5128 -50.2368
4 36.6593 31.2282 -52.9522
4 38.017 27.155 -54.31
4 38.017 29.8705 -51.5945
4 40.7325 27.155 -51.5945
4 40.7325 29.8705 -54.31
4 39.3747 28.5128 -52.9522
4 39.3747 31.2282 -50.2368
4 42.0902 28.5128 -50.2368
4 42.0902 31.2282 -52.9522
4 43.448 27.155 -54.31
4 43.448 29.8705 -51.5945
4 46.1635 27.155 -51.5945
4 46.1635 29.8705 -54.31
4 44.8058 28.5128 -52.9522
4 44.8058 31.2282 -50.2368
4 47.5213 28.5128 -50.2368
4 47.5213 31.2282 -52.9522
4 48.879 27.155 -54.31
4 48.879 29.8705 -51.5945
4 51.5945 27.155 -51.5945
4 51.5945 29.8705 -54.31
4 50.2368 28.5128 -52.9522
4 50.2368 31.2282 -50.2368
4 52.9522 28.5128 -50.2368
4 52.9522 31.2282 -52.9522
4 0 32.586 -54.31
4 0 35.3015 -51.5945
4 2.7155 32.586 -51.5945
4 2.7155 35.3015 -54.31
4 1.35775 33.9438 -52.9522
4 1.35775 36.6593 -50.2368
4 4.07325 33.9438 -50.2368
4 4.07325 36.6593 -52.9522
4 5.431 32.586 -54.31
4 5.431 35.3015 -51.5945
4 8.1465 32.586 -51.5945
4 8.1465 35.3015 -54.31
4 6.78875 33.9438 -52.9522
4 6.78875 36.6593 -50.2368
4 9.50425 33.9438 -50.2368
4 9.50425 36.6593 -52.9522
4 10.862 32.586 -54.31
4 10.862 35.3015 -51.5945
4 13.5775 32.586 -51.5945
4 13.5775 35.3015 -54.31
4 12.2197 33.9438 -52.9522
4 12.2197 36.6593 -50.2368
4 14.9352 33.9438 -50.2368
4 14.9352 36.6593 -52.9522
4 16.293 32.586 -54.31
4 16.293 35.3015 -51.5945
4 19.0085 32.586 -51.5945
4 19.0085 35.3015 -54.31
4 17.6507 33.9438 -52.9522
4 17.6507 36.6593 -50.2368
4 20.3663 33.9438 -50.2368
4 20.3663 36.6593 -52.9522
4 21.724 32.586 -54.31
4 21.724 35.3015 -51.5945
4 24.4395 32.586 -51.5945
4 24.4395 35.3015 -54.31
4 23.0817 33.9438 -52.9522
4 23.0817 36.6593 -50.2368
4 25.7973 33.9438 -50.2368
4 25.7973 36.6593 -52.9522
4 27.155 32.586 -54.31
4 27.155 35.3015 -51.5945
4 29.8705 32.586 -51.5945
4 29.8705 35.3015 -54.31
4 28.5128 33.9438 -52.9522
4 28.5128 36.6593 -50.2368
4 31.2282 33.9438 -50.2368
4 31.2282 36.6593 -52.9522
4 32.586 32.586 -54.31
4 32.586 35.3015 -51.5945
4 35.3015 32.586 -51.5945
4 35.3015 35.3015 -54.31
4 33.9438 33.9438 -52.9522
4 33.9438 36.6593 -50.2368
4 36.6593 33.9438 -50.2368
4 36.6593 36.6593 -52.9522
4 38.017 32.586 -54.31
4 38.017 35.3015 -51.5945
4 40.7325 32.586 -51.5945
4 40.7325 35.3015 -54.31
4 39.3747 33.9438 -52.9522
4 39.3747 36.6593 -50.2368
4 42.0902 33.9438 -50.2368
4 42.0902 36.6593 -52.9522
4 43.448 32.586 -54.31
4 43.448 35.3015 -51.5945
4 46.1635 32.586 -51.5945
4 46.1635 35.3015 -54.31
4 44.8058 33.9438 -52.9522
4 44.8058 36.6593 -50.2368
4 47.5213 33.9438 -50.2368
4 47.5213 36.6593 -52.9522
4 48.879 32.586 -54.31
4 48.879 35.3015 -51.5945
4 51.5945 32.586 -51.5945
4 51.5945 35.3015 -54.31
4 50.2368 33.9438 -52.9522
4 50.2368 36.6593 -50.2368
4 52.9522 33.9438 -50.2368
4 52.9522 36.6593 -52.9522
4 0 38.017 -54.31
4 0 40.7325 -51.5945
4 2.7155 38.017 -51.5945
4 2.7155 40.7325 -54.31
4 1.35775 39.3747 -52.9522
4 1.35775 42.0902 -50.2368
4 4.07325 39.3747 -50.2368
4 4.07325 42.0902 -52.9522
4 5.431 38.017 -54.31
4 5.431 40.7325 -51.5945
4 8.1465 38.017 -51.5945
4 8.1465 40.7325 -54.31
4 6.78875 39.3747 -52.9522
4 6.78875 42.0902 -50.2368
4 9.50425 39.3747 -50.2368
4 9.50425 42.0902 -52.9522
4 10.862 38.017 -54.31
4 10.862 40.7325 -51.5945
4 13.5775 38.017 -51.5945
4 13.5775 40.7325 -54.31
4 12.2197 39.3747 -52.9522
4 12.2197 42.0902 -50.2368
4 14.9352 39.3747 -50.2368
4 14.9352 42.0902 -52.9522
4 16.293 38.017 -54.31
4 16.293 40.7325 -51.5945
4 19.0085 38.017 -51.5945
4 19.0085 40.7325 -54.31
4 17.6507 39.3747 -52.9522
4 17.6507 42.0902 -50.2368
4 20.3663 39.3747 -50.2368
4 20.3663 42.0902 -52.9522
4 21.724 38.017 -54.31
4 21.724 40.7325 -51.5945
4 24.4395 38.017 -51.5945
4 24.4395 40.7325 -54.31
4 23.0817 39.3747 -52.9522
4 23.0817 42.0902 -50.2368
4 25.7973 39.3747 -50.2368
4 25.7973 42.0902 -52.9522
4 27.155 38.017 -54.31
4 27.155 40.7325 -51.5945
4 29.8705 38.017 -51.5945
4 29.8705 40.7325 -54.31
4 28.5128 39.3747 -52.9522
4 28.5128 42.0902 -50.2368
4 31.2282 39.3747 -50.2368
4 31.2282 42.0902 -52.9522
4 32.586 38.017 -54.31
4 32.586 40.7325 -51.5945
4 35.3015 38.017 -51.5945
4 35.3015 40.7325 -54.31
4 33.9438 39.3747 -52.9522
4 33.9438 42.0902 -50.2368
4 36.6593 39.3747 -50.2368
4 36.6593 42.0902 -52.9522
4 38.017 38.017 -54.31
4 38.017 40.7325 -51.5945
4 40.7325 38.017 -51.5945
4 40.7325 40.7325 -54.31
4 39.3747 39.3747 -52.9522
4 39.3747 42.0902 -50.2368
4 42.0902 39.3747 -50.2368
4 42.0902 42.0902 -52.9522
4 43.448 38.017 -54.31
4 43.448 40.7325 -51.5945
4 46.1635 38.017 -51.5945
4 46.1635 40.7325 -54.31
4 44.8058 39.3747 -52.9522
4 44.8058 42.0902 -50.2368
4 47.5213 39.3747 -50.2368
4 47.5213 42.0902 -52.9522
4 48.879 38.017 -54.31
4 48.879 40.7325 -51.5945
4 51.5945 38.017 -51.5945
4 51.5945 40.7325 -54.31
4 50.2368 39.3747 -52.9522
4 50.2368 42.0902 -50.2368
4 52.9522 39.3747 -50.2368
4 52.9522 42.0902 -52.9522
4 0 43.448 -54.31
4 0 46.1635 -51.5945
4 2.7155 43.448 -51.5945
4 2.7155 46.1635 -54.31
4 1.35775 44.8058 -52.9522
4 1.35775 47.5213 -50.2368
4 4.07325 44.8058 -50.2368
4 4.07325 47.5213 -52.9522
4 5.431 43.448 -54.31
4 5.431 46.1635 -51.5945
4 8.1465 43.448 -51.5945
4 8.1465 46.1635 -54.31
4 6.78875 44.8058 -52.9522
4 6.78875 47.5213 -50.2368
4 9.50425 44.8058 -50.2368
4 9.50425 47.5213 -52.9522
4 10.862 43.448 -54.31
4 10.862 46.1635 -51.5945
4 13.5775 43.448 -51.5945
4 13.5775 46.1635 -54.31
4 12.2197 44.8058 -52.9522
4 12.2197 47.5213 -50.2368
4 14.9352 44.8058 -50.2368
4 14.9352 47.5213 -52.9522
4 16.293 43.448 -54.31
4 16.293 46.1635 -51.5945
4 19.0085 43.448 -51.5945
4 19.0085 46.1635 -54.31
4 17.6507 44.8058 -52.9522
4 17.6507 47.5213 -50.2368
4 20.3663 44.8058 -50.2368
4 20.3663 47.5213 -52.9522
4 21.724 43.448 -54.31
4 21.724 46.1635 -51.5945
4 24.4395 43.448 -51.5945
4 24.4395 46.1635 -54.31
4 23.0817 44.8058 -52.9522
4 23.0817 47.5213 -50.2368
4 25.7973 44.8058 -50.2368
4 25.7973 47.5213 -52.9522
4 27.155 43.448 -54.31
4 27.155 46.1635 -51.5945
4 29.8705 43.448 -51.5945
4 29.8705 46.1635 -54.31
4 28.5128 44.8058 -52.9522
4 28.5128 47.5213 -50.2368
4 31.2282 44.8058 -50.2368
4 31.2282 47.5213 -52.9522
4 32.586 43.448 -54.31
4 32.586 46.1635 -51.5945
4 35.3015 43.448 -51.5945
4 35.3015 46.1635 -54.31
4 33.9438 44.8058 -52.9522
4 33.9438 47.5213 -50.2368
4 36.6593 44.8058 -50.2368
4 36.6593 47.5213 -52.9522
4 38.017 43.448 -54.31
4 38.017 46.1635 -51.5945
4 40.7325 43.448 -51.5945
4 40.7325 46.1635 -54.31
4 39.3747 44.8058 -52.9522
4 39.3747 47.5213 -50.2368
4 42.0902 44.8058 -50.2368
4 42.0902 47.5213 -52.9522
4 43.448 43.448 -54.31
4 43.448 46.1635 -51.5945
4 46.1635 43.448 -51.5945
4 46.1635 46.1635 -54.31
4 44.8058 44.8058 -52.9522
4 44.8058 47.5213 -50.2368
4 47.5213 44.8058 -50.2368
4 47.5213 47.5213 -52.9522
4 48.879 43.448 -54.31
4 48.879 46.1635 -51.5945
4 51.5945 43.448 -51.5945
4 51.5945 46.1635 -54.31
4 50.2368 44.8058 -52.9522
4 50.2368 47.5213 -50.2368
4 52.9522 44.8058 -50.2368
4 52.9522 47.5213 -52.9522
4 0 48.879 -54.31
4 0 51.5945 -51.5945
4 2.7155 48.879 -51.5945
4 2.7155 51.5945 -54.31
4 1.35775 50.2368 -52.9522
4 1.35775 52.9522 -50.2368
4 4.07325 50.2368 -50.2368
4 4.07325 52.9522 -52.9522
4 5.431 48.879 -54.31
4 5.431 51.5945 -51.5945
4 8.1465 48.879 -51.5945
4 8.1465 51.5945 -54.31
4 6.78875 50.2368 -52.9522
4 6.78875 52.9522 -50.2368
4 9.50425 50.2368 -50.2368
4 9.50425 52.9522 -52.9522
4 10.862 48.879 -54.31
4 10.862 51.5945 -51.5945
4 13.5775 48.879 -51.5945
4 13.5775 51.5945 -54.31
4 12.2197 50.2368 -52.9522
4 12.2197 52.9522 -50.2368
4 14.9352 50.2368 -50.2368
4 14.9352 52.9522 -52.9522
4 16.293 48.879 -54.31
4 16.293 51.5945 -51.5945
4 19.0085 48.879 -51.5945
4 19.0085 51.5945 -54.31
4 17.6507 50.2368 -52.9522
4 17.6507 52.9522 -50.2368
4 20.3663 50.2368 -50.2368
4 20.3663 52.9522 -52.9522
4 21.724 48.879 -54.31
4 21.724 51.5945 -51.5945
4 24.4395 48.879 -51.5945
4 24.4395 51.5945 -54.31
4 23.0817 50.2368 -52.9522
4 23.0817 52.9522 -50.2368
4 25.7973 50.2368 -50.2368
4 25.7973 52.9522 -52.9522
4 27.155 48.879 -54.31
4 27.155 51.5945 -51.5945
4 29.8705 48.879 -51.5945
4 29.8705 51.5945 -54.31
4 28.5128 50.2368 -52.9522
4 28.5128 52.9522 -50.2368
4 31.2282 50.2368 -50.2368
4 31.2282 52.9522 -52.9522
4 32.586 48.879 -54.31
4 32.586 51.5945 -51.5945
4 35.3015 48.879 -51.5945
4 35.3015 51.5945 -54.31
4 33.9438 50.2368 -52.9522
4 33.9438 52.9522 -50.2368
4 36.6593 50.2368 -50.2368
4 36.6593 52.9522 -52.9522
4 38.017 48.879 -54.31
4 38.017 51.5945 -51.5945
4 40.7325 48.879 -51.5945
4 40.7325 51.5945 -54.31
4 39.3747 50.2368 -52.9522
4 39.3747 52.9522 -50.2368
4 42.0902 50.2368 -50.2368
4 42.0902 52.9522 -52.9522
4 43.448 48.879 -54.31
4 43.448 51.5945 -51.5945
4 46.1635 48.879 -51.5945
4 46.1635 51.5945 -54.31
4 44.8058 50.2368 -52.9522
4 44.8058 52.9522 -50.2368
4 47.5213 50.2368 -50.2368
4 47.5213 52.9522 -52.9522
4 48.879 48.879 -54.31
4 48.879 51.5945 -51.5945
4 51.5945 48.879 -51.5945
4 51.5945 51.5945 -54.31
4 50.2368 50.2368 -52.9522
4 50.2368 52.9522 -50.2368
4 52.9522 50.2368 -50.2368
4 52.9522 52.9522 -52.9522
4 0 0 -48.879
3 2.56912 54.3152 -46.1551
4 2.7155 2.7155 -48.879
4 1.35775 1.35775 -47.5213
3 1.22995 4.05232 -44.6967
3 3.99593 1.42676 -44.7557
4 4.07325 4.07325 -47.5213
4 5.431 0 -48.879
3 5.39552 2.72785 -46.2081
3 8.11989 54.3041 -46.1402
4 8.1465 2.7155 -48.879
4 6.78875 1.35775 -47.5213
3 6.73206 4.08006 -44.741
3 9.50253 1.37342 -44.791
4 9.50425 4.07325 -47.5213
4 10.862 0 -48.879
3 10.8139 2.82756 -46.1778
3 13.629 -0.0850923 -46.1395
4 13.5775 2.7155 -48.879
4 12.2197 1.35775 -47.5213
3 12.1584 4.23631 -44.7939
3 14.8941 1.35281 -44.7474
4 14.9352 4.07325 -47.5213
4 16.293 0 -48.879
3 16.2699 2.64559 -46.1684
1 18.9292 54.2451 -46.1873
4 19.0085 2.7155 -48.879
4 17.6507 1.35775 -47.5213
1 17.5518 4.05437 -44.8423
1 20.2997 1.32404 -44.8718
4 20.3663 4.07325 -47.5213
4 21.724 0 -48.879
1 21.7415 2.79549 -46.1046
1 24.4472 -0.036162 -46.0744
4 24.4395 2.7155 -48.879
4 23.0817 1.35775 -47.5213
1 23.1396 4.18712 -44.7907
1 25.8096 1.40998 -44.797
4 25.7973 4.07325 -47.5213
4 27.155 0 -48.879
1 27.1462 2.69344 -46.1005
1 29.8708 54.2531 -46.1385
4 29.8705 2.7155 -48.879
4 28.5128 1.35775 -47.5213
1 28.5198 4.13069 -44.745
1 31.2133 1.35947 -44.6986
4 31.2282 4.07325 -47.5213
4 32.586 0 -48.879
1 32.5726 2.71851 -46.1248
1 35.3022 54.315 -46.2083
4 35.3015 2.7155 -48.879
4 33.9438 1.35775 -47.5213
1 33.9014 4.07062 -44.7467
1 36.6851 1.35145 -44.7819
4 36.6593 4.07325 -47.5213
4 38.017 0 -48.879
1 38.1102 2.704 -46.1537
1 40.6996 54.2132 -46.1044
4 40.7325 2.7155 -48.879
4 39.3747 1.35775 -47.5213
1 39.4318 3.97322 -44.6485
1 42.108 1.38149 -44.7268
4 42.0902 4.07325 -47.5213
4 43.448 0 -48.879
1 43.4459 2.77305 -46.1521
1 46.2689 0.0463731 -46.1352
4 46.1635 2.7155 -48.879
4 44.8058 1.35775 -47.5213
1 44.7606 4.22589 -44.8169
1 47.6545 1.3876 -44.7356
4 47.5213 4.07325 -47.5213
4 48.879 0 -48.879
1 48.9159 2.7626 -46.134
1 51.6591 54.3602 -46.16
4 51.5945 2.7155 -48.879
4 50.2368 1.35775 -47.5213
1 50.3605 4.17198 -44.8097
1 53.1325 1.39659 -44.8601
4 52.9522 4.07325 -47.5213
4 0 5.431 -48.879
3 2.71877 5.39273 -46.0364
4 2.7155 8.1465 -48.879
4 1.35775 6.78875 -47.5213
3 1.2704 9.57824 -44.6375
3 4.02347 6.80247 -44.7127
4 4.07325 9.50425 -47.5213
4 5.431 5.431 -48.879
3 5.45507 8.09496 -46.1597
3 8.11036 5.47018 -46.1265
4 8.1465 8.1465 -48.879
4 6.78875 6.78875 -47.5213
3 6.71887 9.50382 -44.7418
3 9.48376 6.8425 -44.7785
4 9.50425 9.50425 -47.5213
4 10.862 5.431 -48.879
3 10.8559 8.16417 -46.0949
3 13.6898 5.45976 -46.1419
4 13.5775 8.1465 -48.879
4 12.2197 6.78875 -47.5213
3 12.2039 9.5168 -44.5626
3 14.9235 6.86216 -44.6675
4 14.9352 9.50425 -47.5213
4 16.293 5.431 -48.879
3 16.2158 8.09767 -46.2213
1 19.0209 5.44557 -46.1058
4 19.0085 8.1465 -48.879
4 17.6507 6.78875 -47.5213
1 17.5611 9.3442 -44.7272
1 20.3516 6.76103 -44.6339
4 20.3663 9.50425 -47.5213
4 21.724 5.431 -48.879
1 21.7065 8.15434 -46.1135
1 24.438 5.48917 -46.1495
4 24.4395 8.1465 -48.879
4 23.0817 6.78875 -47.5213
1 23.0137 9.55181 -44.795
1 25.7555 6.7837 -44.7866
4 25.7973 9.50425 -47.5213
4 27.155 5.431 -48.879
1 27.1947 8.21866 -46.1177
1 29.8654 5.40787 -46.1316
4 29.8705 8.1465 -48.879
4 28.5128 6.78875 -47.5213
1 28.5098 9.4833 -44.7064
1 31.1857 6.79378 -44.7936
4 31.2282 9.50425 -47.5213
4 32.586 5.431 -48.879
1 32.5811 8.14146 -46.0758
1 35.2264 5.45843 -46.1672
4 35.3015 8.1465 -48.879
4 33.9438 6.78875 -47.5213
1 33.9116 9.49562 -44.6719
1 36.577 6.78858 -44.7155
4 36.6593 9.50425 -47.5213
4 38.017 5.431 -48.879
1 37.9342 8.03429 -46.1658
1 40.6852 5.39969 -46.0631
4 40.7325 8.1465 -48.879
4 39.3747 6.78875 -47.5213
1 39.3052 9.42062 -44.799
1 42.0691 6.82052 -44.7486
4 42.0902 9.50425 -47.5213
4 43.448 5.431 -48.879
1 43.446 8.14905 -46.0993
1 46.1785 5.45657 -46.2007
4 46.1635 8.1465 -48.879
4 44.8058 6.78875 -47.5213
1 44.7741 9.54797 -44.5808
1 47.5377 6.72781 -44.5872
4 47.5213 9.50425 -47.5213
4 48.879 5.431 -48.879
1 48.9108 8.11584 -46.0949
1 51.7054 5.52499 -46.2161
4 51.5945 8.1465 -48.879
4 50.2368 6.78875 -47.5213
1 50.3195 9.50994 -44.7422
1 53.1638 6.9483 -45.0041
4 52.9522 9.50425 -47.5213
4 0 10.862 -48.879
3 2.66121 10.8198 -46.0187
4 2.7155 13.5775 -48.879
4 1.35775 12.2197 -47.5213
3 1.37918 14.9859 -44.7685
3 4.11994 12.2491 -44.7946
4 4.07325 14.9352 -47.5213
4 5.431 10.862 -48.879
3 5.44753 13.6156 -46.1762
3 8.11873 10.8613 -46.0601
4 8.1465 13.5775 -48.879
4 6.78875 12.2197 -47.5213
3 6.8225 14.8693 -44.7473
3 9.42808 12.252 -44.6966
4 9.50425 14.9352 -47.5213
4 10.862 10.862 -48.879
3 10.827 13.5409 -46.1059
3 13.5572 10.7929 -46.067
4 13.5775 13.5775 -48.879
4 12.2197 12.2197 -47.5213
3 12.1486 15.0449 -44.6983
3 14.8463 12.1638 -44.6674
4 14.9352 14.9352 -47.5213
4 16.293 10.862 -48.879
3 16.2202 13.5903 -46.0557
1 18.916 10.7971 -46.1189
4 19.0085 13.5775 -48.879
4 17.6507 12.2197 -47.5213
1 17.5929 14.9304 -44.7957
1 20.2944 12.1459 -44.7171
4 20.3663 14.9352 -47.5213
4 21.724 10.862 -48.879
1 21.7462 13.5437 -46.0885
1 24.4777 10.851 -46.125
4 24.4395 13.5775 -48.879
4 23.0817 12.2197 -47.5213
1 23.0429 14.9574 -44.7351
1 25.9213 12.1453 -44.6348
4 25.7973 14.9352 -47.5213
4 27.155 10.862 -48.879
1 27.1993 13.5893 -46.0733
1 29.8192 10.8523 -46.1072
4 29.8705 13.5775 -48.879
4 28.5128 12.2197 -47.5213
1 28.5733 15.0009 -44.7254
1 31.1702 12.2504 -44.721
4 31.2282 14.9352 -47.5213
4 32.586 10.862 -48.879
1 32.58 13.5772 -46.134
1 35.2626 10.8474 -46.1986
4 35.3015 13.5775 -48.879
4 33.9438 12.2197 -47.5213
1 33.9471 14.8785 -44.7893
1 36.6566 12.2275 -44.7718
4 36.6593 14.9352 -47.5213
4 38.017 10.862 -48.879
1 38.042 13.5344 -46.1823
1 40.7308 10.8395 -46.2056
4 40.7325 13.5775 -48.879
4 39.3747 12.2197 -47.5213
1 39.4263 14.8767 -44.8433
1 42.0565 12.2133 -44.7277
4 42.0902 14.9352 -47.5213
4 43.448 10.862 -48.879
1 43.4344 13.5005 -46.134
1 46.123 10.8574 -46.0537
4 46.1635 13.5775 -48.879
4 44.8058 12.2197 -47.5213
1 44.7275 14.923 -44.7376
1 47.5898 12.143 -44.7793
4 47.5213 14.9352 -47.5213
4 48.879 10.862 -48.879
1 48.9022 13.5665 -46.0856
1 51.6886 10.8974 -46.1796
4 51.5945 13.5775 -48.879
4 50.2368 12.2197 -47.5213
1 50.265 14.9473 -44.7367
1 53.0541 12.1955 -44.7116
4 52.9522 14.9352 -47.5213
4 0 16.293 -48.879
3 2.72811 16.2358 -46.127
4 2.7155 19.0085 -48.879
4 1.35775 17.6507 -47.5213
3 1.22326 20.3117 -44.8601
3 4.06022 17.6555 -44.7691
4 4.07325 20.3663 -47.5213
4 5.431 16.293 -48.879
3 5.4149 19.0107 -46.1582
3 8.12849 16.2982 -46.0838
4 8.1465 19.0085 -48.879
4 6.78875 17.6507 -47.5213
3 6.63627 20.373 -44.6641
3 9.50645 17.6567 -44.6325
4 9.50425 20.3663 -47.5213
4 10.862 16.293 -48.879
3 10.8496 19.0553 -46.073
3 13.5626 16.3592 -46.155
4 13.5775 19.0085 -48.879
4 12.2197 17.6507 -47.5213
3 12.1707 20.3714 -44.7282
3 14.9213 17.6669 -44.751
4 14.9352 20.3663 -47.5213
4 16.293 16.293 -48.879
3 16.2932 18.9426 -46.145
1 18.9749 16.2845 -46.138
4 19.0085 19.0085 -48.879
4 17.6507 17.6507 -47.5213
1 17.5556 20.3167 -44.732
1 20.3047 17.6283 -44.754
4 20.3663 20.3663 -47.5213
4 21.724 16.293 -48.879
1 21.7157 19.0171 -46.1419
1 24.4777 16.3126 -46.1337
4 24.4395 19.0085 -48.879
4 23.0817 17.6507 -47.5213
1 23.0925 20.3627 -44.7574
1 25.8319 17.6156 -44.6356
4 25.7973 20.3663 -47.5213
4 27.155 16.293 -48.879
1 27.1479 18.9933 -46.1017
1 29.8405 16.3756 -46.1461
4 29.8705 19.0085 -48.879
4 28.5128 17.6507 -47.5213
1 28.5527 20.3364 -44.7308
1 31.2853 17.5948 -44.7142
4 31.2282 20.3663 -47.5213
4 32.586 16.293 -48.879
1 32.5904 18.9852 -46.1686
1 35.2897 16.1914 -46.1524
4 35.3015 19.0085 -48.879
4 33.9438 17.6507 -47.5213
1 33.8873 20.3412 -44.8277
1 36.6544 17.5025 -44.8225
4 36.6593 20.3663 -47.5213
4 38.017 16.293 -48.879
1 37.9364 18.9067 -46.1642
1 40.7896 16.2678 -46.1497
4 40.7325 19.0085 -48.879
4 39.3747 17.6507 -47.5213
1 39.2759 20.3629 -44.7424
1 42.006 17.7666 -44.6879
4 42.0902 20.3663 -47.5213
4 43.448 16.293 -48.879
1 43.3704 19.0006 -46.1257
1 46.2029 16.2938 -46.0858
4 46.1635 19.0085 -48.879
4 44.8058 17.6507 -47.5213
1 44.7641 20.398 -44.6795
1 47.4845 17.722 -44.7175
4 47.5213 20.3663 -47.5213
4 48.879 16.293 -48.879
1 48.8642 18.9801 -46.0776
1 51.7112 16.3104 -46.1027
4 51.5945 19.0085 -48.879
4 50.2368 17.6507 -47.5213
1 50.2776 20.3089 -44.6451
1 53.0809 17.7333 -44.7154
4 52.9522 20.3663 -47.5213
4 0 21.724 -48.879
3 2.69555 21.6825 -46.1533
4 2.7155 24.4395 -48.879
4 1.35775 23.0817 -47.5213
3 1.28433 25.7958 -44.7817
3 3.94127 23.1679 -44.7323
4 4.07325 25.7973 -47.5213
4 5.431 21.724 -48.879
3 5.42212 24.4425 -46.108
3 8.15868 21.695 -46.0602
4 8.1465 24.4395 -48.879
4 6.78875 23.0817 -47.5213
3 6.76268 25.8407 -44.6493
3 9.49942 23.0717 -44.6934
4 9.50425 25.7973 -47.5213
4 10.862 21.724 -48.879
3 10.8751 24.4352 -46.0863
3 13.5367 21.7321 -46.0702
4 13.5775 24.4395 -48.879
4 12.2197 23.0817 -47.5213
3 12.1418 25.817 -44.6192
3 14.868 23.1673 -44.7163
4 14.9352 25.7973 -47.5213
4 16.293 21.724 -48.879
3 16.2645 24.4414 -46.1534
1 19.0137 21.6627 -46.1561
4 19.0085 24.4395 -48.879
4 17.6507 23.0817 -47.5213
1 17.5816 25.7974 -44.6751
1 20.29 23.0714 -44.7084
4 20.3663 25.7973 -47.5213
4 21.724 21.724 -48.879
1 21.6861 24.3256 -46.1579
1 24.4026 21.7095 -46.1639
4 24.4395 24.4395 -48.879
4 23.0817 23.0817 -47.5213
1 23.0533 25.7274 -44.7492
1 25.6907 23.0615 -44.7456
4 25.7973 25.7973 -47.5213
4 27.155 21.724 -48.879
1 27.0827 24.3973 -46.1106
1 29.927 21.7723 -46.1043
4 29.8705 24.4395 -48.879
4 28.5128 23.0817 -47.5213
1 28.4221 25.8789 -44.7424
1 31.2551 23.216 -44.7807
4 31.2282 25.7973 -47.5213
4 32.586 21.724 -48.879