15353
 Atoms. Timestep: 55000
4 0 0 -54.31
4 0 2.7155 -51.5945
4 2.7155 0 -51.5945
4 2.7155 2.7155 -54.31
4 1.35775 1.35775 -52.9522
4 1.35775 4.07325 -50.2368
4 4.07325 1.35775 -50.2368
4 4.07325 4.07325 -52.9522
4 5.431 0 -54.31
4 5.431 2.7155 -51.5945
4 8.1465 0 -51.5945
4 8.1465 2.7155 -54.31
4 6.78875 1.35775 -52.9522
4 6.78875 4.07325 -50.2368
4 9.50425 1.35775 -50.2368
4 9.50425 4.07325 -52.9522
4 10.862 0 -54.31
4 10.862 2.7155 -51.5945
4 13.5775 0 -51.5945
4 13.5775 2.7155 -54.31
4 12.2197 1.35775 -52.9522
4 12.2197 4.07325 -50.2368
4 14.9352 1.35775 -50.2368
4 14.9352 4.07325 -52.9522
4 16.293 0 -54.31
4 16.293 2.7155 -51.5945
4 19.0085 0 -51.5945
4 19.0085 2.7155 -54.31
4 17.6507 1.35775 -52.9522
4 17.6507 4.07325 -50.2368
4 20.3663 1.35775 -50.2368
4 20.3663 4.07325 -52.9522
4 21.724 0 -54.31
4 21.724 2.7155 -51.5945
4 24.4395 0 -51.5945
4 24.4395 2.7155 -54.31
4 23.0817 1.35775 -52.9522
4 23.0817 4.07325 -50.2368
4 25.7973 1.35775 -50.2368
4 25.7973 4.07325 -52.9522
4 27.155 0 -54.31
4 27.155 2.7155 -51.5945
4 29.8705 0 -51.5945
4 29.8705 2.7155 -54.31
4 28.5128 1.35775 -52.9522
4 28.5128 4.07325 -50.2368
4 31.2282 1.35775 -50.2368
4 31.2282 4.07325 -52.9522
4 32.586 0 -54.31
4 32.586 2.7155 -51.5945
4 35.3015 0 -51.5945
4 35.3015 2.7155 -54.31
4 33.9438 1.35775 -52.9522
4 33.9438 4.07325 -50.2368
4 36.6593 1.35775 -50.2368
4 36.6593 4.07325 -52.9522
4 38.017 0 -54.31
4 38.017 2.7155 -51.5945
4 40.7325 0 -51.5945
4 40.7325 2.7155 -54.31
4 39.3747 1.35775 -52.9522
4 39.3747 4.07325 -50.2368
4 42.0902 1.35775 -50.2368
4 42.0902 4.07325 -52.9522
4 43.448 0 -54.31
4 43.448 2.7155 -51.5945
4 46.1635 0 -51.5945
4 46.1635 2.7155 -54.31
4 44.8058 1.35775 -52.9522
4 44.8058 4.07325 -50.2368
4 47.5213 1.35775 -50.2368
4 47.5213 4.07325 -52.9522
4 48.879 0 -54.31
4 48.879 2.7155 -51.5945
4 51.5945 0 -51.5945
4 51.5945 2.7155 -54.31
4 50.2368 1.35775 -52.9522
4 50.2368 4.07325 -50.2368
4 52.9522 1.35775 -50.2368
4 52.9522 4.07325 -52.9522
4 0 5.431 -54.31
4 0 8.1465 -51.5945
4 2.7155 5.431 -51.5945
4 2.7155 8.1465 -54.31
4 1.35775 6.78875 -52.9522
4 1.35775 9.50425 -50.2368
4 4.07325 6.78875 -50.2368
4 4.07325 9.50425 -52.9522
4 5.431 5.431 -54.31
4 5.431 8.1465 -51.5945
4 8.1465 5.431 -51.5945
4 8.1465 8.1465 -54.31
4 6.78875 6.78875 -52.9522
4 6.78875 9.50425 -50.2368
4 9.50425 6.78875 -50.2368
4 9.50425 9.50425 -52.9522
4 10.862 5.431 -54.31
4 10.862 8.1465 -51.5945
4 13.5775 5.431 -51.5945
4 13.5775 8.1465 -54.31
4 12.2197 6.78875 -52.9522
4 12.2197 9.50425 -50.2368
4 14.9352 6.78875 -50.2368
4 14.9352 9.50425 -52.9522
4 16.293 5.431 -54.31
4 16.293 8.1465 -51.5945
4 19.0085 5.431 -51.5945
4 19.0085 8.1465 -54.31
4 17.6507 6.78875 -52.9522
4 17.6507 9.50425 -50.2368
4 20.3663 6.78875 -50.2368
4 20.3663 9.50425 -52.9522
4 21.724 5.431 -54.31
4 21.724 8.1465 -51.5945
4 24.4395 5.431 -51.5945
4 24.4395 8.1465 -54.31
4 23.0817 6.78875 -52.9522
4 23.0817 9.50425 -50.2368
4 25.7973 6.78875 -50.2368
4 25.7973 9.50425 -52.9522
4 27.155 5.431 -54.31
4 27.155 8.1465 -51.5945
4 29.8705 5.431 -51.5945
4 29.8705 8.1465 -54.31
4 28.5128 6.78875 -52.9522
4 28.5128 9.50425 -50.2368
4 31.2282 6.78875 -50.2368
4 31.2282 9.50425 -52.9522
4 32.586 5.431 -54.31
4 32.586 8.1465 -51.5945
4 35.3015 5.431 -51.5945
4 35.3015 8.1465 -54.31
4 33.9438 6.78875 -52.9522
4 33.9438 9.50425 -50.2368
4 36.6593 6.78875 -50.2368
4 36.6593 9.50425 -52.9522
4 38.017 5.431 -54.31
4 38.017 8.1465 -51.5945
4 40.7325 5.431 -51.5945
4 40.7325 8.1465 -54.31
4 39.3747 6.78875 -52.9522
4 39.3747 9.50425 -50.2368
4 42.0902 6.78875 -50.2368
4 42.0902 9.50425 -52.9522
4 43.448 5.431 -54.31
4 43.448 8.1465 -51.5945
4 46.1635 5.431 -51.5945
4 46.1635 8.1465 -54.31
4 44.8058 6.78875 -52.9522
4 44.8058 9.50425 -50.2368
4 47.5213 6.78875 -50.2368
4 47.5213 9.50425 -52.9522
4 48.879 5.431 -54.31
4 48.879 8.1465 -51.5945
4 51.5945 5.431 -51.5945
4 51.5945 8.1465 -54.31
4 50.2368 6.78875 -52.9522
4 50.2368 9.50425 -50.2368
4 52.9522 6.78875 -50.2368
4 52.9522 9.50425 -52.9522
4 0 10.862 -54.31
4 0 13.5775 -51.5945
4 2.7155 10.862 -51.5945
4 2.7155 13.5775 -54.31
4 1.35775 12.2197 -52.9522
4 1.35775 14.9352 -50.2368
4 4.07325 12.2197 -50.2368
4 4.07325 14.9352 -52.9522
4 5.431 10.862 -54.31
4 5.431 13.5775 -51.5945
4 8.1465 10.862 -51.5945
4 8.1465 13.5775 -54.31
4 6.78875 12.2197 -52.9522
4 6.78875 14.9352 -50.2368
4 9.50425 12.2197 -50.2368
4 9.50425 14.9352 -52.9522
4 10.862 10.862 -54.31
4 10.862 13.5775 -51.5945
4 13.5775 10.862 -51.5945
4 13.5775 13.5775 -54.31
4 12.2197 12.2197 -52.9522
4 12.2197 14.9352 -50.2368
4 14.9352 12.2197 -50.2368
4 14.9352 14.9352 -52.9522
4 16.293 10.862 -54.31
4 16.293 13.5775 -51.5945
4 19.0085 10.862 -51.5945
4 19.0085 13.5775 -54.31
4 17.6507 12.2197 -52.9522
4 17.6507 14.9352 -50.2368
4 20.3663 12.2197 -50.2368
4 20.3663 14.9352 -52.9522
4 21.724 10.862 -54.31
4 21.724 13.5775 -51.5945
4 24.4395 10.862 -51.5945
4 24.4395 13.5775 -54.31
4 23.0817 12.2197 -52.9522
4 23.0817 14.9352 -50.2368
4 25.7973 12.2197 -50.2368
4 25.7973 14.9352 -52.9522
4 27.155 10.862 -54.31
4 27.155 13.5775 -51.5945
4 29.8705 10.862 -51.5945
4 29.8705 13.5775 -54.31
4 28.5128 12.2197 -52.9522
4 28.5128 14.9352 -50.2368
4 31.2282 12.2197 -50.2368
4 31.2282 14.9352 -52.9522
4 32.586 10.862 -54.31
4 32.586 13.5775 -51.5945
4 35.3015 10.862 -51.5945
4 35.3015 13.5775 -54.31
4 33.9438 12.2197 -52.9522
4 33.9438 14.9352 -50.2368
4 36.6593 12.2197 -50.2368
4 36.6593 14.9352 -52.9522
4 38.017 10.862 -54.31
4 38.017 13.5775 -51.5945
4 40.7325 10.862 -51.5945
4 40.7325 13.5775 -54.31
4 39.3747 12.2197 -52.9522
4 39.3747 14.9352 -50.2368
4 42.0902 12.2197 -50.2368
4 42.0902 14.9352 -52.9522
4 43.448 10.862 -54.31
4 43.448 13.5775 -51.5945
4 46.1635 10.862 -51.5945
4 46.1635 13.5775 -54.31
4 44.8058 12.2197 -52.9522
4 44.8058 14.9352 -50.2368
4 47.5213 12.2197 -50.2368
4 47.5213 14.9352 -52.9522
4 48.879 10.862 -54.31
4 48.879 13.5775 -51.5945
4 51.5945 10.862 -51.5945
4 51.5945 13.5775 -54.31
4 50.2368 12.2197 -52.9522
4 50.2368 14.9352 -50.2368
4 52.9522 12.2197 -50.2368
4 52.9522 14.9352 -52.9522
4 0 16.293 -54.31
4 0 19.0085 -51.5945
4 2.7155 16.293 -51.5945
4 2.7155 19.0085 -54.31
4 1.35775 17.6507 -52.9522
4 1.35775 20.3663 -50.2368
4 4.07325 17.6507 -50.2368
4 4.07325 20.3663 -52.9522
4 5.431 16.293 -54.31
4 5.431 19.0085 -51.5945
4 8.1465 16.293 -51.5945
4 8.1465 19.0085 -54.31
4 6.78875 17.6507 -52.9522
4 6.78875 20.3663 -50.2368
4 9.50425 17.6507 -50.2368
4 9.50425 20.3663 -52.9522
4 10.862 16.293 -54.31
4 10.862 19.0085 -51.5945
4 13.5775 16.293 -51.5945
4 13.5775 19.0085 -54.31
4 12.2197 17.6507 -52.9522
4 12.2197 20.3663 -50.2368
4 14.9352 17.6507 -50.2368
4 14.9352 20.3663 -52.9522
4 16.293 16.293 -54.31
4 16.293 19.0085 -51.5945
4 19.0085 16.293 -51.5945
4 19.0085 19.0085 -54.31
4 17.6507 17.6507 -52.9522
4 17.6507 20.3663 -50.2368
4 20.3663 17.6507 -50.2368
4 20.3663 20.3663 -52.9522
4 21.724 16.293 -54.31
4 21.724 19.0085 -51.5945
4 24.4395 16.293 -51.5945
4 24.4395 19.0085 -54.31
4 23.0817 17.6507 -52.9522
4 23.0817 20.3663 -50.2368
4 25.7973 17.6507 -50.2368
4 25.7973 20.3663 -52.9522
4 27.155 16.293 -54.31
4 27.155 19.0085 -51.5945
4 29.8705 16.293 -51.5945
4 29.8705 19.0085 -54.31
4 28.5128 17.6507 -52.9522
4 28.5128 20.3663 -50.2368
4 31.2282 17.6507 -50.2368
4 31.2282 20.3663 -52.9522
4 32.586 16.293 -54.31
4 32.586 19.0085 -51.5945
4 35.3015 16.293 -51.5945
4 35.3015 19.0085 -54.31
4 33.9438 17.6507 -52.9522
4 33.9438 20.3663 -50.2368
4 36.6593 17.6507 -50.2368
4 36.6593 20.3663 -52.9522
4 38.017 16.293 -54.31
4 38.017 19.0085 -51.5945
4 40.7325 16.293 -51.5945
4 40.7325 19.0085 -54.31
4 39.3747 17.6507 -52.9522
4 39.3747 20.3663 -50.2368
4 42.0902 17.6507 -50.2368
4 42.0902 20.3663 -52.9522
4 43.448 16.293 -54.31
4 43.448 19.0085 -51.5945
4 46.1635 16.293 -51.5945
4 46.1635 19.0085 -54.31
4 44.8058 17.6507 -52.9522
4 44.8058 20.3663 -50.2368
4 47.5213 17.6507 -50.2368
4 47.5213 20.3663 -52.9522
4 48.879 16.293 -54.31
4 48.879 19.0085 -51.5945
4 51.5945 16.293 -51.5945
4 51.5945 19.0085 -54.31
4 50.2368 17.6507 -52.9522
4 50.2368 20.3663 -50.2368
4 52.9522 17.6507 -50.2368
4 52.9522 20.3663 -52.9522
4 0 21.724 -54.31
4 0 24.4395 -51.5945
4 2.7155 21.724 -51.5945
4 2.7155 24.4395 -54.31
4 1.35775 23.0817 -52.9522
4 1.35775 25.7973 -50.2368
4 4.07325 23.0817 -50.2368
4 4.07325 25.7973 -52.9522
4 5.431 21.724 -54.31
4 5.431 24.4395 -51.5945
4 8.1465 21.724 -51.5945
4 8.1465 24.4395 -54.31
4 6.78875 23.0817 -52.9522
4 6.78875 25.7973 -50.2368
4 9.50425 23.0817 -50.2368
4 9.50425 25.7973 -52.9522
4 10.862 21.724 -54.31
4 10.862 24.4395 -51.5945
4 13.5775 21.724 -51.5945
4 13.5775 24.4395 -54.31
4 12.2197 23.0817 -52.9522
4 12.2197 25.7973 -50.2368
4 14.9352 23.0817 -50.2368
4 14.9352 25.7973 -52.9522
4 16.293 21.724 -54.31
4 16.293 24.4395 -51.5945
4 19.0085 21.724 -51.5945
4 19.0085 24.4395 -54.31
4 17.6507 23.0817 -52.9522
4 17.6507 25.7973 -50.2368
4 20.3663 23.0817 -50.2368
4 20.3663 25.7973 -52.9522
4 21.724 21.724 -54.31
4 21.724 24.4395 -51.5945
4 24.4395 21.724 -51.5945
4 24.4395 24.4395 -54.31
4 23.0817 23.0817 -52.9522
4 23.0817 25.7973 -50.2368
4 25.7973 23.0817 -50.2368
4 25.7973 25.7973 -52.9522
4 27.155 21.724 -54.31
4 27.155 24.4395 -51.5945
4 29.8705 21.724 -51.5945
4 29.8705 24.4395 -54.31
4 28.5128 23.0817 -52.9522
4 28.5128 25.7973 -50.2368
4 31.2282 23.0817 -50.2368
4 31.2282 25.7973 -52.9522
4 32.586 21.724 -54.31
4 32.586 24.4395 -51.5945
4 35.3015 21.724 -51.5945
4 35.3015 24.4395 -54.31
4 33.9438 23.0817 -52.9522
4 33.9438 25.7973 -50.2368
4 36.6593 23.0817 -50.2368
4 36.6593 25.7973 -52.9522
4 38.017 21.724 -54.31
4 38.017 24.4395 -51.5945
4 40.7325 21.724 -51.5945
4 40.7325 24.4395 -54.31
4 39.3747 23.0817 -52.9522
4 39.3747 25.7973 -50.2368
4 42.0902 23.0817 -50.2368
4 42.0902 25.7973 -52.9522
4 43.448 21.724 -54.31
4 43.448 24.4395 -51.5945
4 46.1635 21.724 -51.5945
4 46.1635 24.4395 -54.31
4 44.8058 23.0817 -52.9522
4 44.8058 25.7973 -50.2368
4 47.5213 23.0817 -50.2368
4 47.5213 25.7973 -52.9522
4 48.879 21.724 -54.31
4 48.879 24.4395 -51.5945
4 51.5945 21.724 -51.5945
4 51.5945 24.4395 -54.31
4 50.2368 23.0817 -52.9522
4 50.2368 25.7973 -50.2368
4 52.9522 23.0817 -50.2368
4 52.9522 25.7973 -52.9522
4 0 27.155 -54.31
4 0 29.8705 -51.5945
4 2.7155 27.155 -51.5945
4 2.7155 29.8705 -54.31
4 1.35775 28.5128 -52.9522
4 1.35775 31.2282 -50.2368
4 4.07325 28.5128 -50.2368
4 4.07325 31.2282 -52.9522
4 5.431 27.155 -54.31
4 5.431 29.8705 -51.5945
4 8.1465 27.155 -51.5945
4 8.1465 29.8705 -54.31
4 6.78875 28.5128 -52.9522
4 6.78875 31.2282 -50.2368
4 9.50425 28.5128 -50.2368
4 9.50425 31.2282 -52.9522
4 10.862 27.155 -54.31
4 10.862 29.8705 -51.5945
4 13.5775 27.155 -51.5945
4 13.5775 29.8705 -54.31
4 12.2197 28.5128 -52.9522
4 12.2197 31.2282 -50.2368
4 14.9352 28.5128 -50.2368
4 14.9352 31.2282 -52.9522
4 16.293 27.155 -54.31
4 16.293 29.8705 -51.5945
4 19.0085 27.155 -51.5945
4 19.0085 29.8705 -54.31
4 17.6507 28.5128 -52.9522
4 17.6507 31.2282 -50.2368
4 20.3663 28.5128 -50.2368
4 20.3663 31.2282 -52.9522
4 21.724 27.155 -54.31
4 21.724 29.8705 -51.5945
4 24.4395 27.155 -51.5945
4 24.4395 29.8705 -54.31
4 23.0817 28.5128 -52.9522
4 23.0817 31.2282 -50.2368
4 25.7973 28.5128 -50.2368
4 25.7973 31.2282 -52.9522
4 27.155 27.155 -54.31
4 27.155 29.8705 -51.5945
4 29.8705 27.155 -51.5945
4 29.8705 29.8705 -54.31
4 28.5128 28.5128 -52.9522
4 28.5128 31.2282 -50.2368
4 31.2282 28.5128 -50.2368
4 31.2282 31.2282 -52.9522
4 32.586 27.155 -54.31
4 32.586 29.8705 -51.5945
4 35.3015 27.155 -51.5945
4 35.3015 29.8705 -54.31
4 33.9438 28.5128 -52.9522
4 33.9438 31.2282 -50.2368
4 36.6593 28.5128 -50.2368
4 36.6593 31.2282 -52.9522
4 38.017 27.155 -54.31
4 38.017 29.8705 -51.5945
4 40.7325 27.155 -51.5945
4 40.7325 29.8705 -54.31
4 39.3747 28.5128 -52.9522
4 39.3747 31.2282 -50.2368
4 42.0902 28.5128 -50.2368
4 42.0902 31.2282 -52.9522
4 43.448 27.155 -54.31
4 43.448 29.8705 -51.5945
4 46.1635 27.155 -51.5945
4 46.1635 29.8705 -54.31
4 44.8058 28.5128 -52.9522
4 44.8058 31.2282 -50.2368
4 47.5213 28.5128 -50.2368
4 47.5213 31.2282 -52.9522
4 48.879 27.155 -54.31
4 48.879 29.8705 -51.5945
4 51.5945 27.155 -51.5945
4 51.5945 29.8705 -54.31
4 50.2368 28.5128 -52.9522
4 50.2368 31.2282 -50.2368
4 52.9522 28.5128 -50.2368
4 52.9522 31.2282 -52.9522
4 0 32.586 -54.31
4 0 35.3015 -51.5945
4 2.7155 32.586 -51.5945
4 2.7155 35.3015 -54.31
4 1.35775 33.9438 -52.9522
4 1.35775 36.6593 -50.2368
4 4.07325 33.9438 -50.2368
4 4.07325 36.6593 -52.9522
4 5.431 32.586 -54.31
4 5.431 35.3015 -51.5945
4 8.1465 32.586 -51.5945
4 8.1465 35.3015 -54.31
4 6.78875 33.9438 -52.9522
4 6.78875 36.6593 -50.2368
4 9.50425 33.9438 -50.2368
4 9.50425 36.6593 -52.9522
4 10.862 32.586 -54.31
4 10.862 35.3015 -51.5945
4 13.5775 32.586 -51.5945
4 13.5775 35.3015 -54.31
4 12.2197 33.9438 -52.9522
4 12.2197 36.6593 -50.2368
4 14.9352 33.9438 -50.2368
4 14.9352 36.6593 -52.9522
4 16.293 32.586 -54.31
4 16.293 35.3015 -51.5945
4 19.0085 32.586 -51.5945
4 19.0085 35.3015 -54.31
4 17.6507 33.9438 -52.9522
4 17.6507 36.6593 -50.2368
4 20.3663 33.9438 -50.2368
4 20.3663 36.6593 -52.9522
4 21.724 32.586 -54.31
4 21.724 35.3015 -51.5945
4 24.4395 32.586 -51.5945
4 24.4395 35.3015 -54.31
4 23.0817 33.9438 -52.9522
4 23.0817 36.6593 -50.2368
4 25.7973 33.9438 -50.2368
4 25.7973 36.6593 -52.9522
4 27.155 32.586 -54.31
4 27.155 35.3015 -51.5945
4 29.8705 32.586 -51.5945
4 29.8705 35.3015 -54.31
4 28.5128 33.9438 -52.9522
4 28.5128 36.6593 -50.2368
4 31.2282 33.9438 -50.2368
4 31.2282 36.6593 -52.9522
4 32.586 32.586 -54.31
4 32.586 35.3015 -51.5945
4 35.3015 32.586 -51.5945
4 35.3015 35.3015 -54.31
4 33.9438 33.9438 -52.9522
4 33.9438 36.6593 -50.2368
4 36.6593 33.9438 -50.2368
4 36.6593 36.6593 -52.9522
4 38.017 32.586 -54.31
4 38.017 35.3015 -51.5945
4 40.7325 32.586 -51.5945
4 40.7325 35.3015 -54.31
4 39.3747 33.9438 -52.9522
4 39.3747 36.6593 -50.2368
4 42.0902 33.9438 -50.2368
4 42.0902 36.6593 -52.9522
4 43.448 32.586 -54.31
4 43.448 35.3015 -51.5945
4 46.1635 32.586 -51.5945
4 46.1635 35.3015 -54.31
4 44.8058 33.9438 -52.9522
4 44.8058 36.6593 -50.2368
4 47.5213 33.9438 -50.2368
4 47.5213 36.6593 -52.9522
4 48.879 32.586 -54.31
4 48.879 35.3015 -51.5945
4 51.5945 32.586 -51.5945
4 51.5945 35.3015 -54.31
4 50.2368 33.9438 -52.9522
4 50.2368 36.6593 -50.2368
4 52.9522 33.9438 -50.2368
4 52.9522 36.6593 -52.9522
4 0 38.017 -54.31
4 0 40.7325 -51.5945
4 2.7155 38.017 -51.5945
4 2.7155 40.7325 -54.31
4 1.35775 39.3747 -52.9522
4 1.35775 42.0902 -50.2368
4 4.07325 39.3747 -50.2368
4 4.07325 42.0902 -52.9522
4 5.431 38.017 -54.31
4 5.431 40.7325 -51.5945
4 8.1465 38.017 -51.5945
4 8.1465 40.7325 -54.31
4 6.78875 39.3747 -52.9522
4 6.78875 42.0902 -50.2368
4 9.50425 39.3747 -50.2368
4 9.50425 42.0902 -52.9522
4 10.862 38.017 -54.31
4 10.862 40.7325 -51.5945
4 13.5775 38.017 -51.5945
4 13.5775 40.7325 -54.31
4 12.2197 39.3747 -52.9522
4 12.2197 42.0902 -50.2368
4 14.9352 39.3747 -50.2368
4 14.9352 42.0902 -52.9522
4 16.293 38.017 -54.31
4 16.293 40.7325 -51.5945
4 19.0085 38.017 -51.5945
4 19.0085 40.7325 -54.31
4 17.6507 39.3747 -52.9522
4 17.6507 42.0902 -50.2368
4 20.3663 39.3747 -50.2368
4 20.3663 42.0902 -52.9522
4 21.724 38.017 -54.31
4 21.724 40.7325 -51.5945
4 24.4395 38.017 -51.5945
4 24.4395 40.7325 -54.31
4 23.0817 39.3747 -52.9522
4 23.0817 42.0902 -50.2368
4 25.7973 39.3747 -50.2368
4 25.7973 42.0902 -52.9522
4 27.155 38.017 -54.31
4 27.155 40.7325 -51.5945
4 29.8705 38.017 -51.5945
4 29.8705 40.7325 -54.31
4 28.5128 39.3747 -52.9522
4 28.5128 42.0902 -50.2368
4 31.2282 39.3747 -50.2368
4 31.2282 42.0902 -52.9522
4 32.586 38.017 -54.31
4 32.586 40.7325 -51.5945
4 35.3015 38.017 -51.5945
4 35.3015 40.7325 -54.31
4 33.9438 39.3747 -52.9522
4 33.9438 42.0902 -50.2368
4 36.6593 39.3747 -50.2368
4 36.6593 42.0902 -52.9522
4 38.017 38.017 -54.31
4 38.017 40.7325 -51.5945
4 40.7325 38.017 -51.5945
4 40.7325 40.7325 -54.31
4 39.3747 39.3747 -52.9522
4 39.3747 42.0902 -50.2368
4 42.0902 39.3747 -50.2368
4 42.0902 42.0902 -52.9522
4 43.448 38.017 -54.31
4 43.448 40.7325 -51.5945
4 46.1635 38.017 -51.5945
4 46.1635 40.7325 -54.31
4 44.8058 39.3747 -52.9522
4 44.8058 42.0902 -50.2368
4 47.5213 39.3747 -50.2368
4 47.5213 42.0902 -52.9522
4 48.879 38.017 -54.31
4 48.879 40.7325 -51.5945
4 51.5945 38.017 -51.5945
4 51.5945 40.7325 -54.31
4 50.2368 39.3747 -52.9522
4 50.2368 42.0902 -50.2368
4 52.9522 39.3747 -50.2368
4 52.9522 42.0902 -52.9522
4 0 43.448 -54.31
4 0 46.1635 -51.5945
4 2.7155 43.448 -51.5945
4 2.7155 46.1635 -54.31
4 1.35775 44.8058 -52.9522
4 1.35775 47.5213 -50.2368
4 4.07325 44.8058 -50.2368
4 4.07325 47.5213 -52.9522
4 5.431 43.448 -54.31
4 5.431 46.1635 -51.5945
4 8.1465 43.448 -51.5945
4 8.1465 46.1635 -54.31
4 6.78875 44.8058 -52.9522
4 6.78875 47.5213 -50.2368
4 9.50425 44.8058 -50.2368
4 9.50425 47.5213 -52.9522
4 10.862 43.448 -54.31
4 10.862 46.1635 -51.5945
4 13.5775 43.448 -51.5945
4 13.5775 46.1635 -54.31
4 12.2197 44.8058 -52.9522
4 12.2197 47.5213 -50.2368
4 14.9352 44.8058 -50.2368
4 14.9352 47.5213 -52.9522
4 16.293 43.448 -54.31
4 16.293 46.1635 -51.5945
4 19.0085 43.448 -51.5945
4 19.0085 46.1635 -54.31
4 17.6507 44.8058 -52.9522
4 17.6507 47.5213 -50.2368
4 20.3663 44.8058 -50.2368
4 20.3663 47.5213 -52.9522
4 21.724 43.448 -54.31
4 21.724 46.1635 -51.5945
4 24.4395 43.448 -51.5945
4 24.4395 46.1635 -54.31
4 23.0817 44.8058 -52.9522
4 23.0817 47.5213 -50.2368
4 25.7973 44.8058 -50.2368
4 25.7973 47.5213 -52.9522
4 27.155 43.448 -54.31
4 27.155 46.1635 -51.5945
4 29.8705 43.448 -51.5945
4 29.8705 46.1635 -54.31
4 28.5128 44.8058 -52.9522
4 28.5128 47.5213 -50.2368
4 31.2282 44.8058 -50.2368
4 31.2282 47.5213 -52.9522
4 32.586 43.448 -54.31
4 32.586 46.1635 -51.5945
4 35.3015 43.448 -51.5945
4 35.3015 46.1635 -54.31
4 33.9438 44.8058 -52.9522
4 33.9438 47.5213 -50.2368
4 36.6593 44.8058 -50.2368
4 36.6593 47.5213 -52.9522
4 38.017 43.448 -54.31
4 38.017 46.1635 -51.5945
4 40.7325 43.448 -51.5945
4 40.7325 46.1635 -54.31
4 39.3747 44.8058 -52.9522
4 39.3747 47.5213 -50.2368
4 42.0902 44.8058 -50.2368
4 42.0902 47.5213 -52.9522
4 43.448 43.448 -54.31
4 43.448 46.1635 -51.5945
4 46.1635 43.448 -51.5945
4 46.1635 46.1635 -54.31
4 44.8058 44.8058 -52.9522
4 44.8058 47.5213 -50.2368
4 47.5213 44.8058 -50.2368
4 47.5213 47.5213 -52.9522
4 48.879 43.448 -54.31
4 48.879 46.1635 -51.5945
4 51.5945 43.448 -51.5945
4 51.5945 46.1635 -54.31
4 50.2368 44.8058 -52.9522
4 50.2368 47.5213 -50.2368
4 52.9522 44.8058 -50.2368
4 52.9522 47.5213 -52.9522
4 0 48.879 -54.31
4 0 51.5945 -51.5945
4 2.7155 48.879 -51.5945
4 2.7155 51.5945 -54.31
4 1.35775 50.2368 -52.9522
4 1.35775 52.9522 -50.2368
4 4.07325 50.2368 -50.2368
4 4.07325 52.9522 -52.9522
4 5.431 48.879 -54.31
4 5.431 51.5945 -51.5945
4 8.1465 48.879 -51.5945
4 8.1465 51.5945 -54.31
4 6.78875 50.2368 -52.9522
4 6.78875 52.9522 -50.2368
4 9.50425 50.2368 -50.2368
4 9.50425 52.9522 -52.9522
4 10.862 48.879 -54.31
4 10.862 51.5945 -51.5945
4 13.5775 48.879 -51.5945
4 13.5775 51.5945 -54.31
4 12.2197 50.2368 -52.9522
4 12.2197 52.9522 -50.2368
4 14.9352 50.2368 -50.2368
4 14.9352 52.9522 -52.9522
4 16.293 48.879 -54.31
4 16.293 51.5945 -51.5945
4 19.0085 48.879 -51.5945
4 19.0085 51.5945 -54.31
4 17.6507 50.2368 -52.9522
4 17.6507 52.9522 -50.2368
4 20.3663 50.2368 -50.2368
4 20.3663 52.9522 -52.9522
4 21.724 48.879 -54.31
4 21.724 51.5945 -51.5945
4 24.4395 48.879 -51.5945
4 24.4395 51.5945 -54.31
4 23.0817 50.2368 -52.9522
4 23.0817 52.9522 -50.2368
4 25.7973 50.2368 -50.2368
4 25.7973 52.9522 -52.9522
4 27.155 48.879 -54.31
4 27.155 51.5945 -51.5945
4 29.8705 48.879 -51.5945
4 29.8705 51.5945 -54.31
4 28.5128 50.2368 -52.9522
4 28.5128 52.9522 -50.2368
4 31.2282 50.2368 -50.2368
4 31.2282 52.9522 -52.9522
4 32.586 48.879 -54.31
4 32.586 51.5945 -51.5945
4 35.3015 48.879 -51.5945
4 35.3015 51.5945 -54.31
4 33.9438 50.2368 -52.9522
4 33.9438 52.9522 -50.2368
4 36.6593 50.2368 -50.2368
4 36.6593 52.9522 -52.9522
4 38.017 48.879 -54.31
4 38.017 51.5945 -51.5945
4 40.7325 48.879 -51.5945
4 40.7325 51.5945 -54.31
4 39.3747 50.2368 -52.9522
4 39.3747 52.9522 -50.2368
4 42.0902 50.2368 -50.2368
4 42.0902 52.9522 -52.9522
4 43.448 48.879 -54.31
4 43.448 51.5945 -51.5945
4 46.1635 48.879 -51.5945
4 46.1635 51.5945 -54.31
4 44.8058 50.2368 -52.9522
4 44.8058 52.9522 -50.2368
4 47.5213 50.2368 -50.2368
4 47.5213 52.9522 -52.9522
4 48.879 48.879 -54.31
4 48.879 51.5945 -51.5945
4 51.5945 48.879 -51.5945
4 51.5945 51.5945 -54.31
4 50.2368 50.2368 -52.9522
4 50.2368 52.9522 -50.2368
4 52.9522 50.2368 -50.2368
4 52.9522 52.9522 -52.9522
4 0 0 -48.879
3 2.6504 2.6076 -40.5999
4 2.7155 2.7155 -48.879
4 1.35775 1.35775 -47.5213
3 1.17749 6.60934 -39.5196
3 3.95575 4.05449 -39.2746
4 4.07325 4.07325 -47.5213
4 5.431 0 -48.879
3 5.39109 5.38273 -40.6196
3 8.15404 2.74155 -40.5058
4 8.1465 2.7155 -48.879
4 6.78875 1.35775 -47.5213
3 6.72974 6.61229 -39.1696
3 9.45712 4.0682 -39.17
4 9.50425 4.07325 -47.5213
4 10.862 0 -48.879
3 10.7818 5.37377 -40.5421
3 13.5186 2.66596 -40.5904
4 13.5775 2.7155 -48.879
4 12.2197 1.35775 -47.5213
3 12.1097 6.65466 -39.0979
3 14.8537 4.01355 -39.2062
4 14.9352 4.07325 -47.5213
4 16.293 0 -48.879
3 16.2043 5.44991 -40.5251
1 18.9683 2.73065 -40.504
4 19.0085 2.7155 -48.879
4 17.6507 1.35775 -47.5213
1 17.5907 6.80691 -39.2122
1 20.3638 4.04322 -39.1288
4 20.3663 4.07325 -47.5213
4 21.724 0 -48.879
1 21.6891 5.39435 -40.5495
1 24.3231 2.6078 -40.629
4 24.4395 2.7155 -48.879
4 23.0817 1.35775 -47.5213
1 22.9906 6.73713 -39.2486
1 25.695 3.99923 -39.283
4 25.7973 4.07325 -47.5213
4 27.155 0 -48.879
1 27.1355 5.40638 -40.5682
1 29.8411 2.67037 -40.5553
4 29.8705 2.7155 -48.879
4 28.5128 1.35775 -47.5213
1 28.5652 6.70364 -39.1745
1 31.3385 3.97213 -39.1756
4 31.2282 4.07325 -47.5213
4 32.586 0 -48.879
1 32.517 5.45871 -40.5629
1 35.23 2.70168 -40.5294
4 35.3015 2.7155 -48.879
4 33.9438 1.35775 -47.5213
1 33.9648 6.75355 -39.1697
1 36.6934 4.02286 -39.1606
4 36.6593 4.07325 -47.5213
4 38.017 0 -48.879
1 38.0837 5.4103 -40.4944
1 40.7646 2.70016 -40.4725
4 40.7325 2.7155 -48.879
4 39.3747 1.35775 -47.5213
1 39.3907 6.72375 -39.0318
1 42.1195 4.07886 -39.0193
4 42.0902 4.07325 -47.5213
4 43.448 0 -48.879
1 43.4284 5.42898 -40.5288
1 46.2077 2.78924 -40.4316
4 46.1635 2.7155 -48.879
4 44.8058 1.35775 -47.5213
1 44.7714 6.68863 -39.0697
1 47.5738 4.00016 -38.9759
4 47.5213 4.07325 -47.5213
4 48.879 0 -48.879
1 48.9087 5.40892 -40.4427
1 51.5876 2.7485 -40.506
4 51.5945 2.7155 -48.879
4 50.2368 1.35775 -47.5213
1 50.3204 6.70384 -38.9949
1 52.9482 3.73776 -38.8128
4 52.9522 4.07325 -47.5213
4 0 5.431 -48.879
3 2.69695 8.01421 -40.5341
4 2.7155 8.1465 -48.879
4 1.35775 6.78875 -47.5213
3 1.07572 12.0913 -39.3494
3 3.88988 9.50147 -39.2288
4 4.07325 9.50425 -47.5213
4 5.431 5.431 -48.879
3 5.39824 10.7804 -40.5795
3 8.05299 8.02216 -40.5014
4 8.1465 8.1465 -48.879
4 6.78875 6.78875 -47.5213
3 6.67047 12.1806 -39.1262
3 9.35382 9.35904 -39.0602
4 9.50425 9.50425 -47.5213
4 10.862 5.431 -48.879
3 10.679 10.7798 -40.5336
3 13.41 8.04947 -40.6194
4 13.5775 8.1465 -48.879
4 12.2197 6.78875 -47.5213
3 12.0863 12.1625 -39.1829
3 14.7363 9.41364 -39.2154
4 14.9352 9.50425 -47.5213
4 16.293 5.431 -48.879
3 16.2649 10.768 -40.4811
1 18.9826 8.05959 -40.5951
4 19.0085 8.1465 -48.879
4 17.6507 6.78875 -47.5213
1 17.6331 12.133 -39.162
1 20.2539 9.43855 -39.1346
4 20.3663 9.50425 -47.5213
4 21.724 5.431 -48.879
1 21.6527 10.8075 -40.421
1 24.4162 8.08282 -40.5193
4 24.4395 8.1465 -48.879
4 23.0817 6.78875 -47.5213
1 23.0677 12.171 -39.1218
1 25.7894 9.45594 -39.1305
4 25.7973 9.50425 -47.5213
4 27.155 5.431 -48.879
1 27.1057 10.8041 -40.5536
1 29.8919 8.10037 -40.5424
4 29.8705 8.1465 -48.879
4 28.5128 6.78875 -47.5213
1 28.4112 12.2636 -39.2055
1 31.2611 9.42152 -39.0881
4 31.2282 9.50425 -47.5213
4 32.586 5.431 -48.879
1 32.553 10.7767 -40.5639
1 35.3184 8.16428 -40.4975
4 35.3015 8.1465 -48.879
4 33.9438 6.78875 -47.5213
1 33.9161 12.164 -39.2042
1 36.7245 9.48269 -39.0486
4 36.6593 9.50425 -47.5213
4 38.017 5.431 -48.879
1 37.9743 10.838 -40.5336
1 40.71 8.12576 -40.4797
4 40.7325 8.1465 -48.879
4 39.3747 6.78875 -47.5213
1 39.2856 12.1785 -39.0606
1 42.0657 9.45175 -39.0848
4 42.0902 9.50425 -47.5213
4 43.448 5.431 -48.879
1 43.3479 10.8368 -40.4727
1 46.1213 8.0588 -40.4431
4 46.1635 8.1465 -48.879
4 44.8058 6.78875 -47.5213
1 44.819 12.1585 -39.0975
1 47.4908 9.39198 -38.9918
4 47.5213 9.50425 -47.5213
4 48.879 5.431 -48.879
1 48.8006 10.8047 -40.4643
1 51.5922 8.12907 -40.4842
4 51.5945 8.1465 -48.879
4 50.2368 6.78875 -47.5213
1 50.2091 12.1848 -39.0756
1 52.9496 9.52324 -39.0562
4 52.9522 9.50425 -47.5213
4 0 10.862 -48.879
3 2.6227 13.4872 -40.5809
4 2.7155 13.5775 -48.879
4 1.35775 12.2197 -47.5213
3 1.22607 18.1782 -38.9854
3 3.86705 14.9098 -39.2346
4 4.07325 14.9352 -47.5213
4 5.431 10.862 -48.879
3 5.32365 16.2091 -40.5633
3 8.03063 13.47 -40.5242
4 8.1465 13.5775 -48.879
4 6.78875 12.2197 -47.5213
3 6.71234 17.5981 -39.214
3 9.4348 14.8109 -39.2921
4 9.50425 14.9352 -47.5213
4 10.862 10.862 -48.879
3 10.8719 16.2256 -40.6044
3 13.4794 13.5112 -40.4843
4 13.5775 13.5775 -48.879
4 12.2197 12.2197 -47.5213
3 12.1719 17.6628 -39.182
3 14.8353 14.8083 -39.1407
4 14.9352 14.9352 -47.5213
4 16.293 10.862 -48.879
3 16.1963 16.224 -40.474
1 18.9888 13.5265 -40.4728
4 19.0085 13.5775 -48.879
4 17.6507 12.2197 -47.5213
1 17.563 17.5745 -39.1554
1 20.4114 14.8015 -39.1874
4 20.3663 14.9352 -47.5213
4 21.724 10.862 -48.879
1 21.664 16.2595 -40.5894
1 24.4313 13.5805 -40.6275
4 24.4395 13.5775 -48.879
4 23.0817 12.2197 -47.5213
1 23.158 17.6119 -39.1275
1 25.7101 14.9395 -39.1573
4 25.7973 14.9352 -47.5213
4 27.155 10.862 -48.879
1 27.1503 16.3783 -40.5375
1 29.7854 13.5557 -40.5889
4 29.8705 13.5775 -48.879
4 28.5128 12.2197 -47.5213
1 28.4269 17.7317 -39.1537
1 31.1153 14.9144 -39.16
4 31.2282 14.9352 -47.5213
4 32.586 10.862 -48.879
1 32.4933 16.2959 -40.547
1 35.2411 13.5623 -40.5405
4 35.3015 13.5775 -48.879
4 33.9438 12.2197 -47.5213
1 33.8498 17.6285 -39.1574
1 36.5775 14.9347 -39.0727
4 36.6593 14.9352 -47.5213
4 38.017 10.862 -48.879
1 37.9149 16.2779 -40.4794
1 40.6754 13.5805 -40.4106
4 40.7325 13.5775 -48.879
4 39.3747 12.2197 -47.5213
1 39.3276 17.578 -39.1123
1 42.0928 14.8319 -38.9998
4 42.0902 14.9352 -47.5213
4 43.448 10.862 -48.879
1 43.4244 16.1481 -40.4747
1 46.2338 13.5598 -40.4576
4 46.1635 13.5775 -48.879
4 44.8058 12.2197 -47.5213
1 44.7586 17.5492 -39.069
1 47.6331 14.8803 -39.0372
4 47.5213 14.9352 -47.5213
4 48.879 10.862 -48.879
1 48.9019 16.2627 -40.4574
1 51.5484 13.5137 -40.4593
4 51.5945 13.5775 -48.879
4 50.2368 12.2197 -47.5213
1 50.3022 17.6158 -39.0987
1 52.9825 14.8202 -39.0133
4 52.9522 14.9352 -47.5213
4 0 16.293 -48.879
3 2.6482 18.9373 -40.6389
4 2.7155 19.0085 -48.879
4 1.35775 17.6507 -47.5213
3 1.24102 22.2789 -40.1788
3 4.04503 20.265 -39.3179
4 4.07325 20.3663 -47.5213
4 5.431 16.293 -48.879
3 5.37221 21.6223 -40.5714
3 8.10651 18.93 -40.5893
4 8.1465 19.0085 -48.879
4 6.78875 17.6507 -47.5213
3 6.67387 23.0199 -39.2133
3 9.46586 20.2508 -39.1839
4 9.50425 20.3663 -47.5213
4 10.862 16.293 -48.879
3 10.7856 21.6293 -40.6569
3 13.4592 19.0621 -40.5193
4 13.5775 19.0085 -48.879
4 12.2197 17.6507 -47.5213
3 12.0792 22.9578 -39.1394
3 14.8794 20.3221 -39.111
4 14.9352 20.3663 -47.5213
4 16.293 16.293 -48.879
3 16.2568 21.7558 -40.5382
1 18.874 18.9897 -40.5556
4 19.0085 19.0085 -48.879
4 17.6507 17.6507 -47.5213
1 17.613 23.0734 -39.1252
1 20.3226 20.2668 -39.1928
4 20.3663 20.3663 -47.5213
4 21.724 16.293 -48.879
1 21.6978 21.6694 -40.5889
1 24.4659 19.013 -40.5159
4 24.4395 19.0085 -48.879
4 23.0817 17.6507 -47.5213
1 23.0941 23.0137 -39.1976
1 25.774 20.2892 -39.0418
4 25.7973 20.3663 -47.5213
4 27.155 16.293 -48.879
1 27.1824 21.7063 -40.4482
1 29.8388 18.9651 -40.5487
4 29.8705 19.0085 -48.879
4 28.5128 17.6507 -47.5213
1 28.5257 23.0746 -39.0997
1 31.1697 20.3309 -39.0917
4 31.2282 20.3663 -47.5213
4 32.586 16.293 -48.879
1 32.6193 21.7108 -40.5387
1 35.2835 18.9475 -40.4939
4 35.3015 19.0085 -48.879
4 33.9438 17.6507 -47.5213
1 33.992 23.0627 -39.08
1 36.6043 20.3753 -39.1613
4 36.6593 20.3663 -47.5213
4 38.017 16.293 -48.879
1 38.0439 21.7863 -40.5959
1 40.646 18.8973 -40.5816
4 40.7325 19.0085 -48.879
4 39.3747 17.6507 -47.5213
1 39.3857 23.0599 -39.135
1 41.9547 20.2802 -39.0584
4 42.0902 20.3663 -47.5213
4 43.448 16.293 -48.879
1 43.4356 21.6161 -40.4292
1 46.1394 18.9502 -40.5339
4 46.1635 19.0085 -48.879
4 44.8058 17.6507 -47.5213
1 44.7502 22.9376 -39.082
1 47.5912 20.1838 -39.1636
4 47.5213 20.3663 -47.5213
4 48.879 16.293 -48.879
1 48.8798 21.6664 -40.5327
1 51.5362 19.0164 -40.5458
4 51.5945 19.0085 -48.879
4 50.2368 17.6507 -47.5213
1 50.2465 23.0706 -39.1571
1 52.9174 20.3527 -39.1065
4 52.9522 20.3663 -47.5213
4 0 21.724 -48.879
3 2.61748 24.2877 -40.5571
4 2.7155 24.4395 -48.879
4 1.35775 23.0817 -47.5213
3 1.08306 28.4041 -39.2475
3 3.91395 25.7464 -39.2025
4 4.07325 25.7973 -47.5213
4 5.431 21.724 -48.879
3 5.37188 27.1714 -40.5417
3 8.095 24.413 -40.5561
4 8.1465 24.4395 -48.879
4 6.78875 23.0817 -47.5213
3 6.69992 28.4675 -39.1639
3 9.40611 25.7029 -39.1834
4 9.50425 25.7973 -47.5213
4 10.862 21.724 -48.879
3 10.7901 27.0971 -40.5787
3 13.4801 24.3896 -40.472
4 13.5775 24.4395 -48.879
4 12.2197 23.0817 -47.5213
3 12.148 28.5321 -39.2499
3 14.8961 25.7962 -39.1776
4 14.9352 25.7973 -47.5213
4 16.293 21.724 -48.879
3 16.2774 27.1904 -40.5727
1 18.9822 24.3938 -40.5396
4 19.0085 24.4395 -48.879
4 17.6507 23.0817 -47.5213
1 17.6217 28.4993 -39.1793
1 20.1996 25.6035 -39.0408
4 20.3663 25.7973 -47.5213
4 21.724 21.724 -48.879
1 21.6119 27.0648 -40.5734
1 24.3571 24.4459 -40.5553
4 24.4395 24.4395 -48.879
4 23.0817 23.0817 -47.5213
1 23.0224 28.4705 -39.2306
1 25.741 25.6843 -39.139
4 25.7973 25.7973 -47.5213
4 27.155 21.724 -48.879
1 27.0951 27.0958 -40.4523
1 29.8928 24.4366 -40.5023
4 29.8705 24.4395 -48.879
4 28.5128 23.0817 -47.5213
1 28.5533 28.4197 -39.1456
1 31.291 25.6957 -39.15
4 31.2282 25.7973 -47.5213
4 32.586 21.724 -48.879
1 32.5532 27.1686 -40.6127