13612
 Atoms. Timestep: 140000
4 0 0 -54.31
4 0 2.7155 -51.5945
4 2.7155 0 -51.5945
4 2.7155 2.7155 -54.31
4 1.35775 1.35775 -52.9522
4 1.35775 4.07325 -50.2368
4 4.07325 1.35775 -50.2368
4 4.07325 4.07325 -52.9522
4 5.431 0 -54.31
4 5.431 2.7155 -51.5945
4 8.1465 0 -51.5945
4 8.1465 2.7155 -54.31
4 6.78875 1.35775 -52.9522
4 6.78875 4.07325 -50.2368
4 9.50425 1.35775 -50.2368
4 9.50425 4.07325 -52.9522
4 10.862 0 -54.31
4 10.862 2.7155 -51.5945
4 13.5775 0 -51.5945
4 13.5775 2.7155 -54.31
4 12.2197 1.35775 -52.9522
4 12.2197 4.07325 -50.2368
4 14.9352 1.35775 -50.2368
4 14.9352 4.07325 -52.9522
4 16.293 0 -54.31
4 16.293 2.7155 -51.5945
4 19.0085 0 -51.5945
4 19.0085 2.7155 -54.31
4 17.6507 1.35775 -52.9522
4 17.6507 4.07325 -50.2368
4 20.3663 1.35775 -50.2368
4 20.3663 4.07325 -52.9522
4 21.724 0 -54.31
4 21.724 2.7155 -51.5945
4 24.4395 0 -51.5945
4 24.4395 2.7155 -54.31
4 23.0817 1.35775 -52.9522
4 23.0817 4.07325 -50.2368
4 25.7973 1.35775 -50.2368
4 25.7973 4.07325 -52.9522
4 27.155 0 -54.31
4 27.155 2.7155 -51.5945
4 29.8705 0 -51.5945
4 29.8705 2.7155 -54.31
4 28.5128 1.35775 -52.9522
4 28.5128 4.07325 -50.2368
4 31.2282 1.35775 -50.2368
4 31.2282 4.07325 -52.9522
4 32.586 0 -54.31
4 32.586 2.7155 -51.5945
4 35.3015 0 -51.5945
4 35.3015 2.7155 -54.31
4 33.9438 1.35775 -52.9522
4 33.9438 4.07325 -50.2368
4 36.6593 1.35775 -50.2368
4 36.6593 4.07325 -52.9522
4 38.017 0 -54.31
4 38.017 2.7155 -51.5945
4 40.7325 0 -51.5945
4 40.7325 2.7155 -54.31
4 39.3747 1.35775 -52.9522
4 39.3747 4.07325 -50.2368
4 42.0902 1.35775 -50.2368
4 42.0902 4.07325 -52.9522
4 43.448 0 -54.31
4 43.448 2.7155 -51.5945
4 46.1635 0 -51.5945
4 46.1635 2.7155 -54.31
4 44.8058 1.35775 -52.9522
4 44.8058 4.07325 -50.2368
4 47.5213 1.35775 -50.2368
4 47.5213 4.07325 -52.9522
4 48.879 0 -54.31
4 48.879 2.7155 -51.5945
4 51.5945 0 -51.5945
4 51.5945 2.7155 -54.31
4 50.2368 1.35775 -52.9522
4 50.2368 4.07325 -50.2368
4 52.9522 1.35775 -50.2368
4 52.9522 4.07325 -52.9522
4 0 5.431 -54.31
4 0 8.1465 -51.5945
4 2.7155 5.431 -51.5945
4 2.7155 8.1465 -54.31
4 1.35775 6.78875 -52.9522
4 1.35775 9.50425 -50.2368
4 4.07325 6.78875 -50.2368
4 4.07325 9.50425 -52.9522
4 5.431 5.431 -54.31
4 5.431 8.1465 -51.5945
4 8.1465 5.431 -51.5945
4 8.1465 8.1465 -54.31
4 6.78875 6.78875 -52.9522
4 6.78875 9.50425 -50.2368
4 9.50425 6.78875 -50.2368
4 9.50425 9.50425 -52.9522
4 10.862 5.431 -54.31
4 10.862 8.1465 -51.5945
4 13.5775 5.431 -51.5945
4 13.5775 8.1465 -54.31
4 12.2197 6.78875 -52.9522
4 12.2197 9.50425 -50.2368
4 14.9352 6.78875 -50.2368
4 14.9352 9.50425 -52.9522
4 16.293 5.431 -54.31
4 16.293 8.1465 -51.5945
4 19.0085 5.431 -51.5945
4 19.0085 8.1465 -54.31
4 17.6507 6.78875 -52.9522
4 17.6507 9.50425 -50.2368
4 20.3663 6.78875 -50.2368
4 20.3663 9.50425 -52.9522
4 21.724 5.431 -54.31
4 21.724 8.1465 -51.5945
4 24.4395 5.431 -51.5945
4 24.4395 8.1465 -54.31
4 23.0817 6.78875 -52.9522
4 23.0817 9.50425 -50.2368
4 25.7973 6.78875 -50.2368
4 25.7973 9.50425 -52.9522
4 27.155 5.431 -54.31
4 27.155 8.1465 -51.5945
4 29.8705 5.431 -51.5945
4 29.8705 8.1465 -54.31
4 28.5128 6.78875 -52.9522
4 28.5128 9.50425 -50.2368
4 31.2282 6.78875 -50.2368
4 31.2282 9.50425 -52.9522
4 32.586 5.431 -54.31
4 32.586 8.1465 -51.5945
4 35.3015 5.431 -51.5945
4 35.3015 8.1465 -54.31
4 33.9438 6.78875 -52.9522
4 33.9438 9.50425 -50.2368
4 36.6593 6.78875 -50.2368
4 36.6593 9.50425 -52.9522
4 38.017 5.431 -54.31
4 38.017 8.1465 -51.5945
4 40.7325 5.431 -51.5945
4 40.7325 8.1465 -54.31
4 39.3747 6.78875 -52.9522
4 39.3747 9.50425 -50.2368
4 42.0902 6.78875 -50.2368
4 42.0902 9.50425 -52.9522
4 43.448 5.431 -54.31
4 43.448 8.1465 -51.5945
4 46.1635 5.431 -51.5945
4 46.1635 8.1465 -54.31
4 44.8058 6.78875 -52.9522
4 44.8058 9.50425 -50.2368
4 47.5213 6.78875 -50.2368
4 47.5213 9.50425 -52.9522
4 48.879 5.431 -54.31
4 48.879 8.1465 -51.5945
4 51.5945 5.431 -51.5945
4 51.5945 8.1465 -54.31
4 50.2368 6.78875 -52.9522
4 50.2368 9.50425 -50.2368
4 52.9522 6.78875 -50.2368
4 52.9522 9.50425 -52.9522
4 0 10.862 -54.31
4 0 13.5775 -51.5945
4 2.7155 10.862 -51.5945
4 2.7155 13.5775 -54.31
4 1.35775 12.2197 -52.9522
4 1.35775 14.9352 -50.2368
4 4.07325 12.2197 -50.2368
4 4.07325 14.9352 -52.9522
4 5.431 10.862 -54.31
4 5.431 13.5775 -51.5945
4 8.1465 10.862 -51.5945
4 8.1465 13.5775 -54.31
4 6.78875 12.2197 -52.9522
4 6.78875 14.9352 -50.2368
4 9.50425 12.2197 -50.2368
4 9.50425 14.9352 -52.9522
4 10.862 10.862 -54.31
4 10.862 13.5775 -51.5945
4 13.5775 10.862 -51.5945
4 13.5775 13.5775 -54.31
4 12.2197 12.2197 -52.9522
4 12.2197 14.9352 -50.2368
4 14.9352 12.2197 -50.2368
4 14.9352 14.9352 -52.9522
4 16.293 10.862 -54.31
4 16.293 13.5775 -51.5945
4 19.0085 10.862 -51.5945
4 19.0085 13.5775 -54.31
4 17.6507 12.2197 -52.9522
4 17.6507 14.9352 -50.2368
4 20.3663 12.2197 -50.2368
4 20.3663 14.9352 -52.9522
4 21.724 10.862 -54.31
4 21.724 13.5775 -51.5945
4 24.4395 10.862 -51.5945
4 24.4395 13.5775 -54.31
4 23.0817 12.2197 -52.9522
4 23.0817 14.9352 -50.2368
4 25.7973 12.2197 -50.2368
4 25.7973 14.9352 -52.9522
4 27.155 10.862 -54.31
4 27.155 13.5775 -51.5945
4 29.8705 10.862 -51.5945
4 29.8705 13.5775 -54.31
4 28.5128 12.2197 -52.9522
4 28.5128 14.9352 -50.2368
4 31.2282 12.2197 -50.2368
4 31.2282 14.9352 -52.9522
4 32.586 10.862 -54.31
4 32.586 13.5775 -51.5945
4 35.3015 10.862 -51.5945
4 35.3015 13.5775 -54.31
4 33.9438 12.2197 -52.9522
4 33.9438 14.9352 -50.2368
4 36.6593 12.2197 -50.2368
4 36.6593 14.9352 -52.9522
4 38.017 10.862 -54.31
4 38.017 13.5775 -51.5945
4 40.7325 10.862 -51.5945
4 40.7325 13.5775 -54.31
4 39.3747 12.2197 -52.9522
4 39.3747 14.9352 -50.2368
4 42.0902 12.2197 -50.2368
4 42.0902 14.9352 -52.9522
4 43.448 10.862 -54.31
4 43.448 13.5775 -51.5945
4 46.1635 10.862 -51.5945
4 46.1635 13.5775 -54.31
4 44.8058 12.2197 -52.9522
4 44.8058 14.9352 -50.2368
4 47.5213 12.2197 -50.2368
4 47.5213 14.9352 -52.9522
4 48.879 10.862 -54.31
4 48.879 13.5775 -51.5945
4 51.5945 10.862 -51.5945
4 51.5945 13.5775 -54.31
4 50.2368 12.2197 -52.9522
4 50.2368 14.9352 -50.2368
4 52.9522 12.2197 -50.2368
4 52.9522 14.9352 -52.9522
4 0 16.293 -54.31
4 0 19.0085 -51.5945
4 2.7155 16.293 -51.5945
4 2.7155 19.0085 -54.31
4 1.35775 17.6507 -52.9522
4 1.35775 20.3663 -50.2368
4 4.07325 17.6507 -50.2368
4 4.07325 20.3663 -52.9522
4 5.431 16.293 -54.31
4 5.431 19.0085 -51.5945
4 8.1465 16.293 -51.5945
4 8.1465 19.0085 -54.31
4 6.78875 17.6507 -52.9522
4 6.78875 20.3663 -50.2368
4 9.50425 17.6507 -50.2368
4 9.50425 20.3663 -52.9522
4 10.862 16.293 -54.31
4 10.862 19.0085 -51.5945
4 13.5775 16.293 -51.5945
4 13.5775 19.0085 -54.31
4 12.2197 17.6507 -52.9522
4 12.2197 20.3663 -50.2368
4 14.9352 17.6507 -50.2368
4 14.9352 20.3663 -52.9522
4 16.293 16.293 -54.31
4 16.293 19.0085 -51.5945
4 19.0085 16.293 -51.5945
4 19.0085 19.0085 -54.31
4 17.6507 17.6507 -52.9522
4 17.6507 20.3663 -50.2368
4 20.3663 17.6507 -50.2368
4 20.3663 20.3663 -52.9522
4 21.724 16.293 -54.31
4 21.724 19.0085 -51.5945
4 24.4395 16.293 -51.5945
4 24.4395 19.0085 -54.31
4 23.0817 17.6507 -52.9522
4 23.0817 20.3663 -50.2368
4 25.7973 17.6507 -50.2368
4 25.7973 20.3663 -52.9522
4 27.155 16.293 -54.31
4 27.155 19.0085 -51.5945
4 29.8705 16.293 -51.5945
4 29.8705 19.0085 -54.31
4 28.5128 17.6507 -52.9522
4 28.5128 20.3663 -50.2368
4 31.2282 17.6507 -50.2368
4 31.2282 20.3663 -52.9522
4 32.586 16.293 -54.31
4 32.586 19.0085 -51.5945
4 35.3015 16.293 -51.5945
4 35.3015 19.0085 -54.31
4 33.9438 17.6507 -52.9522
4 33.9438 20.3663 -50.2368
4 36.6593 17.6507 -50.2368
4 36.6593 20.3663 -52.9522
4 38.017 16.293 -54.31
4 38.017 19.0085 -51.5945
4 40.7325 16.293 -51.5945
4 40.7325 19.0085 -54.31
4 39.3747 17.6507 -52.9522
4 39.3747 20.3663 -50.2368
4 42.0902 17.6507 -50.2368
4 42.0902 20.3663 -52.9522
4 43.448 16.293 -54.31
4 43.448 19.0085 -51.5945
4 46.1635 16.293 -51.5945
4 46.1635 19.0085 -54.31
4 44.8058 17.6507 -52.9522
4 44.8058 20.3663 -50.2368
4 47.5213 17.6507 -50.2368
4 47.5213 20.3663 -52.9522
4 48.879 16.293 -54.31
4 48.879 19.0085 -51.5945
4 51.5945 16.293 -51.5945
4 51.5945 19.0085 -54.31
4 50.2368 17.6507 -52.9522
4 50.2368 20.3663 -50.2368
4 52.9522 17.6507 -50.2368
4 52.9522 20.3663 -52.9522
4 0 21.724 -54.31
4 0 24.4395 -51.5945
4 2.7155 21.724 -51.5945
4 2.7155 24.4395 -54.31
4 1.35775 23.0817 -52.9522
4 1.35775 25.7973 -50.2368
4 4.07325 23.0817 -50.2368
4 4.07325 25.7973 -52.9522
4 5.431 21.724 -54.31
4 5.431 24.4395 -51.5945
4 8.1465 21.724 -51.5945
4 8.1465 24.4395 -54.31
4 6.78875 23.0817 -52.9522
4 6.78875 25.7973 -50.2368
4 9.50425 23.0817 -50.2368
4 9.50425 25.7973 -52.9522
4 10.862 21.724 -54.31
4 10.862 24.4395 -51.5945
4 13.5775 21.724 -51.5945
4 13.5775 24.4395 -54.31
4 12.2197 23.0817 -52.9522
4 12.2197 25.7973 -50.2368
4 14.9352 23.0817 -50.2368
4 14.9352 25.7973 -52.9522
4 16.293 21.724 -54.31
4 16.293 24.4395 -51.5945
4 19.0085 21.724 -51.5945
4 19.0085 24.4395 -54.31
4 17.6507 23.0817 -52.9522
4 17.6507 25.7973 -50.2368
4 20.3663 23.0817 -50.2368
4 20.3663 25.7973 -52.9522
4 21.724 21.724 -54.31
4 21.724 24.4395 -51.5945
4 24.4395 21.724 -51.5945
4 24.4395 24.4395 -54.31
4 23.0817 23.0817 -52.9522
4 23.0817 25.7973 -50.2368
4 25.7973 23.0817 -50.2368
4 25.7973 25.7973 -52.9522
4 27.155 21.724 -54.31
4 27.155 24.4395 -51.5945
4 29.8705 21.724 -51.5945
4 29.8705 24.4395 -54.31
4 28.5128 23.0817 -52.9522
4 28.5128 25.7973 -50.2368
4 31.2282 23.0817 -50.2368
4 31.2282 25.7973 -52.9522
4 32.586 21.724 -54.31
4 32.586 24.4395 -51.5945
4 35.3015 21.724 -51.5945
4 35.3015 24.4395 -54.31
4 33.9438 23.0817 -52.9522
4 33.9438 25.7973 -50.2368
4 36.6593 23.0817 -50.2368
4 36.6593 25.7973 -52.9522
4 38.017 21.724 -54.31
4 38.017 24.4395 -51.5945
4 40.7325 21.724 -51.5945
4 40.7325 24.4395 -54.31
4 39.3747 23.0817 -52.9522
4 39.3747 25.7973 -50.2368
4 42.0902 23.0817 -50.2368
4 42.0902 25.7973 -52.9522
4 43.448 21.724 -54.31
4 43.448 24.4395 -51.5945
4 46.1635 21.724 -51.5945
4 46.1635 24.4395 -54.31
4 44.8058 23.0817 -52.9522
4 44.8058 25.7973 -50.2368
4 47.5213 23.0817 -50.2368
4 47.5213 25.7973 -52.9522
4 48.879 21.724 -54.31
4 48.879 24.4395 -51.5945
4 51.5945 21.724 -51.5945
4 51.5945 24.4395 -54.31
4 50.2368 23.0817 -52.9522
4 50.2368 25.7973 -50.2368
4 52.9522 23.0817 -50.2368
4 52.9522 25.7973 -52.9522
4 0 27.155 -54.31
4 0 29.8705 -51.5945
4 2.7155 27.155 -51.5945
4 2.7155 29.8705 -54.31
4 1.35775 28.5128 -52.9522
4 1.35775 31.2282 -50.2368
4 4.07325 28.5128 -50.2368
4 4.07325 31.2282 -52.9522
4 5.431 27.155 -54.31
4 5.431 29.8705 -51.5945
4 8.1465 27.155 -51.5945
4 8.1465 29.8705 -54.31
4 6.78875 28.5128 -52.9522
4 6.78875 31.2282 -50.2368
4 9.50425 28.5128 -50.2368
4 9.50425 31.2282 -52.9522
4 10.862 27.155 -54.31
4 10.862 29.8705 -51.5945
4 13.5775 27.155 -51.5945
4 13.5775 29.8705 -54.31
4 12.2197 28.5128 -52.9522
4 12.2197 31.2282 -50.2368
4 14.9352 28.5128 -50.2368
4 14.9352 31.2282 -52.9522
4 16.293 27.155 -54.31
4 16.293 29.8705 -51.5945
4 19.0085 27.155 -51.5945
4 19.0085 29.8705 -54.31
4 17.6507 28.5128 -52.9522
4 17.6507 31.2282 -50.2368
4 20.3663 28.5128 -50.2368
4 20.3663 31.2282 -52.9522
4 21.724 27.155 -54.31
4 21.724 29.8705 -51.5945
4 24.4395 27.155 -51.5945
4 24.4395 29.8705 -54.31
4 23.0817 28.5128 -52.9522
4 23.0817 31.2282 -50.2368
4 25.7973 28.5128 -50.2368
4 25.7973 31.2282 -52.9522
4 27.155 27.155 -54.31
4 27.155 29.8705 -51.5945
4 29.8705 27.155 -51.5945
4 29.8705 29.8705 -54.31
4 28.5128 28.5128 -52.9522
4 28.5128 31.2282 -50.2368
4 31.2282 28.5128 -50.2368
4 31.2282 31.2282 -52.9522
4 32.586 27.155 -54.31
4 32.586 29.8705 -51.5945
4 35.3015 27.155 -51.5945
4 35.3015 29.8705 -54.31
4 33.9438 28.5128 -52.9522
4 33.9438 31.2282 -50.2368
4 36.6593 28.5128 -50.2368
4 36.6593 31.2282 -52.9522
4 38.017 27.155 -54.31
4 38.017 29.8705 -51.5945
4 40.7325 27.155 -51.5945
4 40.7325 29.8705 -54.31
4 39.3747 28.5128 -52.9522
4 39.3747 31.2282 -50.2368
4 42.0902 28.5128 -50.2368
4 42.0902 31.2282 -52.9522
4 43.448 27.155 -54.31
4 43.448 29.8705 -51.5945
4 46.1635 27.155 -51.5945
4 46.1635 29.8705 -54.31
4 44.8058 28.5128 -52.9522
4 44.8058 31.2282 -50.2368
4 47.5213 28.5128 -50.2368
4 47.5213 31.2282 -52.9522
4 48.879 27.155 -54.31
4 48.879 29.8705 -51.5945
4 51.5945 27.155 -51.5945
4 51.5945 29.8705 -54.31
4 50.2368 28.5128 -52.9522
4 50.2368 31.2282 -50.2368
4 52.9522 28.5128 -50.2368
4 52.9522 31.2282 -52.9522
4 0 32.586 -54.31
4 0 35.3015 -51.5945
4 2.7155 32.586 -51.5945
4 2.7155 35.3015 -54.31
4 1.35775 33.9438 -52.9522
4 1.35775 36.6593 -50.2368
4 4.07325 33.9438 -50.2368
4 4.07325 36.6593 -52.9522
4 5.431 32.586 -54.31
4 5.431 35.3015 -51.5945
4 8.1465 32.586 -51.5945
4 8.1465 35.3015 -54.31
4 6.78875 33.9438 -52.9522
4 6.78875 36.6593 -50.2368
4 9.50425 33.9438 -50.2368
4 9.50425 36.6593 -52.9522
4 10.862 32.586 -54.31
4 10.862 35.3015 -51.5945
4 13.5775 32.586 -51.5945
4 13.5775 35.3015 -54.31
4 12.2197 33.9438 -52.9522
4 12.2197 36.6593 -50.2368
4 14.9352 33.9438 -50.2368
4 14.9352 36.6593 -52.9522
4 16.293 32.586 -54.31
4 16.293 35.3015 -51.5945
4 19.0085 32.586 -51.5945
4 19.0085 35.3015 -54.31
4 17.6507 33.9438 -52.9522
4 17.6507 36.6593 -50.2368
4 20.3663 33.9438 -50.2368
4 20.3663 36.6593 -52.9522
4 21.724 32.586 -54.31
4 21.724 35.3015 -51.5945
4 24.4395 32.586 -51.5945
4 24.4395 35.3015 -54.31
4 23.0817 33.9438 -52.9522
4 23.0817 36.6593 -50.2368
4 25.7973 33.9438 -50.2368
4 25.7973 36.6593 -52.9522
4 27.155 32.586 -54.31
4 27.155 35.3015 -51.5945
4 29.8705 32.586 -51.5945
4 29.8705 35.3015 -54.31
4 28.5128 33.9438 -52.9522
4 28.5128 36.6593 -50.2368
4 31.2282 33.9438 -50.2368
4 31.2282 36.6593 -52.9522
4 32.586 32.586 -54.31
4 32.586 35.3015 -51.5945
4 35.3015 32.586 -51.5945
4 35.3015 35.3015 -54.31
4 33.9438 33.9438 -52.9522
4 33.9438 36.6593 -50.2368
4 36.6593 33.9438 -50.2368
4 36.6593 36.6593 -52.9522
4 38.017 32.586 -54.31
4 38.017 35.3015 -51.5945
4 40.7325 32.586 -51.5945
4 40.7325 35.3015 -54.31
4 39.3747 33.9438 -52.9522
4 39.3747 36.6593 -50.2368
4 42.0902 33.9438 -50.2368
4 42.0902 36.6593 -52.9522
4 43.448 32.586 -54.31
4 43.448 35.3015 -51.5945
4 46.1635 32.586 -51.5945
4 46.1635 35.3015 -54.31
4 44.8058 33.9438 -52.9522
4 44.8058 36.6593 -50.2368
4 47.5213 33.9438 -50.2368
4 47.5213 36.6593 -52.9522
4 48.879 32.586 -54.31
4 48.879 35.3015 -51.5945
4 51.5945 32.586 -51.5945
4 51.5945 35.3015 -54.31
4 50.2368 33.9438 -52.9522
4 50.2368 36.6593 -50.2368
4 52.9522 33.9438 -50.2368
4 52.9522 36.6593 -52.9522
4 0 38.017 -54.31
4 0 40.7325 -51.5945
4 2.7155 38.017 -51.5945
4 2.7155 40.7325 -54.31
4 1.35775 39.3747 -52.9522
4 1.35775 42.0902 -50.2368
4 4.07325 39.3747 -50.2368
4 4.07325 42.0902 -52.9522
4 5.431 38.017 -54.31
4 5.431 40.7325 -51.5945
4 8.1465 38.017 -51.5945
4 8.1465 40.7325 -54.31
4 6.78875 39.3747 -52.9522
4 6.78875 42.0902 -50.2368
4 9.50425 39.3747 -50.2368
4 9.50425 42.0902 -52.9522
4 10.862 38.017 -54.31
4 10.862 40.7325 -51.5945
4 13.5775 38.017 -51.5945
4 13.5775 40.7325 -54.31
4 12.2197 39.3747 -52.9522
4 12.2197 42.0902 -50.2368
4 14.9352 39.3747 -50.2368
4 14.9352 42.0902 -52.9522
4 16.293 38.017 -54.31
4 16.293 40.7325 -51.5945
4 19.0085 38.017 -51.5945
4 19.0085 40.7325 -54.31
4 17.6507 39.3747 -52.9522
4 17.6507 42.0902 -50.2368
4 20.3663 39.3747 -50.2368
4 20.3663 42.0902 -52.9522
4 21.724 38.017 -54.31
4 21.724 40.7325 -51.5945
4 24.4395 38.017 -51.5945
4 24.4395 40.7325 -54.31
4 23.0817 39.3747 -52.9522
4 23.0817 42.0902 -50.2368
4 25.7973 39.3747 -50.2368
4 25.7973 42.0902 -52.9522
4 27.155 38.017 -54.31
4 27.155 40.7325 -51.5945
4 29.8705 38.017 -51.5945
4 29.8705 40.7325 -54.31
4 28.5128 39.3747 -52.9522
4 28.5128 42.0902 -50.2368
4 31.2282 39.3747 -50.2368
4 31.2282 42.0902 -52.9522
4 32.586 38.017 -54.31
4 32.586 40.7325 -51.5945
4 35.3015 38.017 -51.5945
4 35.3015 40.7325 -54.31
4 33.9438 39.3747 -52.9522
4 33.9438 42.0902 -50.2368
4 36.6593 39.3747 -50.2368
4 36.6593 42.0902 -52.9522
4 38.017 38.017 -54.31
4 38.017 40.7325 -51.5945
4 40.7325 38.017 -51.5945
4 40.7325 40.7325 -54.31
4 39.3747 39.3747 -52.9522
4 39.3747 42.0902 -50.2368
4 42.0902 39.3747 -50.2368
4 42.0902 42.0902 -52.9522
4 43.448 38.017 -54.31
4 43.448 40.7325 -51.5945
4 46.1635 38.017 -51.5945
4 46.1635 40.7325 -54.31
4 44.8058 39.3747 -52.9522
4 44.8058 42.0902 -50.2368
4 47.5213 39.3747 -50.2368
4 47.5213 42.0902 -52.9522
4 48.879 38.017 -54.31
4 48.879 40.7325 -51.5945
4 51.5945 38.017 -51.5945
4 51.5945 40.7325 -54.31
4 50.2368 39.3747 -52.9522
4 50.2368 42.0902 -50.2368
4 52.9522 39.3747 -50.2368
4 52.9522 42.0902 -52.9522
4 0 43.448 -54.31
4 0 46.1635 -51.5945
4 2.7155 43.448 -51.5945
4 2.7155 46.1635 -54.31
4 1.35775 44.8058 -52.9522
4 1.35775 47.5213 -50.2368
4 4.07325 44.8058 -50.2368
4 4.07325 47.5213 -52.9522
4 5.431 43.448 -54.31
4 5.431 46.1635 -51.5945
4 8.1465 43.448 -51.5945
4 8.1465 46.1635 -54.31
4 6.78875 44.8058 -52.9522
4 6.78875 47.5213 -50.2368
4 9.50425 44.8058 -50.2368
4 9.50425 47.5213 -52.9522
4 10.862 43.448 -54.31
4 10.862 46.1635 -51.5945
4 13.5775 43.448 -51.5945
4 13.5775 46.1635 -54.31
4 12.2197 44.8058 -52.9522
4 12.2197 47.5213 -50.2368
4 14.9352 44.8058 -50.2368
4 14.9352 47.5213 -52.9522
4 16.293 43.448 -54.31
4 16.293 46.1635 -51.5945
4 19.0085 43.448 -51.5945
4 19.0085 46.1635 -54.31
4 17.6507 44.8058 -52.9522
4 17.6507 47.5213 -50.2368
4 20.3663 44.8058 -50.2368
4 20.3663 47.5213 -52.9522
4 21.724 43.448 -54.31
4 21.724 46.1635 -51.5945
4 24.4395 43.448 -51.5945
4 24.4395 46.1635 -54.31
4 23.0817 44.8058 -52.9522
4 23.0817 47.5213 -50.2368
4 25.7973 44.8058 -50.2368
4 25.7973 47.5213 -52.9522
4 27.155 43.448 -54.31
4 27.155 46.1635 -51.5945
4 29.8705 43.448 -51.5945
4 29.8705 46.1635 -54.31
4 28.5128 44.8058 -52.9522
4 28.5128 47.5213 -50.2368
4 31.2282 44.8058 -50.2368
4 31.2282 47.5213 -52.9522
4 32.586 43.448 -54.31
4 32.586 46.1635 -51.5945
4 35.3015 43.448 -51.5945
4 35.3015 46.1635 -54.31
4 33.9438 44.8058 -52.9522
4 33.9438 47.5213 -50.2368
4 36.6593 44.8058 -50.2368
4 36.6593 47.5213 -52.9522
4 38.017 43.448 -54.31
4 38.017 46.1635 -51.5945
4 40.7325 43.448 -51.5945
4 40.7325 46.1635 -54.31
4 39.3747 44.8058 -52.9522
4 39.3747 47.5213 -50.2368
4 42.0902 44.8058 -50.2368
4 42.0902 47.5213 -52.9522
4 43.448 43.448 -54.31
4 43.448 46.1635 -51.5945
4 46.1635 43.448 -51.5945
4 46.1635 46.1635 -54.31
4 44.8058 44.8058 -52.9522
4 44.8058 47.5213 -50.2368
4 47.5213 44.8058 -50.2368
4 47.5213 47.5213 -52.9522
4 48.879 43.448 -54.31
4 48.879 46.1635 -51.5945
4 51.5945 43.448 -51.5945
4 51.5945 46.1635 -54.31
4 50.2368 44.8058 -52.9522
4 50.2368 47.5213 -50.2368
4 52.9522 44.8058 -50.2368
4 52.9522 47.5213 -52.9522
4 0 48.879 -54.31
4 0 51.5945 -51.5945
4 2.7155 48.879 -51.5945
4 2.7155 51.5945 -54.31
4 1.35775 50.2368 -52.9522
4 1.35775 52.9522 -50.2368
4 4.07325 50.2368 -50.2368
4 4.07325 52.9522 -52.9522
4 5.431 48.879 -54.31
4 5.431 51.5945 -51.5945
4 8.1465 48.879 -51.5945
4 8.1465 51.5945 -54.31
4 6.78875 50.2368 -52.9522
4 6.78875 52.9522 -50.2368
4 9.50425 50.2368 -50.2368
4 9.50425 52.9522 -52.9522
4 10.862 48.879 -54.31
4 10.862 51.5945 -51.5945
4 13.5775 48.879 -51.5945
4 13.5775 51.5945 -54.31
4 12.2197 50.2368 -52.9522
4 12.2197 52.9522 -50.2368
4 14.9352 50.2368 -50.2368
4 14.9352 52.9522 -52.9522
4 16.293 48.879 -54.31
4 16.293 51.5945 -51.5945
4 19.0085 48.879 -51.5945
4 19.0085 51.5945 -54.31
4 17.6507 50.2368 -52.9522
4 17.6507 52.9522 -50.2368
4 20.3663 50.2368 -50.2368
4 20.3663 52.9522 -52.9522
4 21.724 48.879 -54.31
4 21.724 51.5945 -51.5945
4 24.4395 48.879 -51.5945
4 24.4395 51.5945 -54.31
4 23.0817 50.2368 -52.9522
4 23.0817 52.9522 -50.2368
4 25.7973 50.2368 -50.2368
4 25.7973 52.9522 -52.9522
4 27.155 48.879 -54.31
4 27.155 51.5945 -51.5945
4 29.8705 48.879 -51.5945
4 29.8705 51.5945 -54.31
4 28.5128 50.2368 -52.9522
4 28.5128 52.9522 -50.2368
4 31.2282 50.2368 -50.2368
4 31.2282 52.9522 -52.9522
4 32.586 48.879 -54.31
4 32.586 51.5945 -51.5945
4 35.3015 48.879 -51.5945
4 35.3015 51.5945 -54.31
4 33.9438 50.2368 -52.9522
4 33.9438 52.9522 -50.2368
4 36.6593 50.2368 -50.2368
4 36.6593 52.9522 -52.9522
4 38.017 48.879 -54.31
4 38.017 51.5945 -51.5945
4 40.7325 48.879 -51.5945
4 40.7325 51.5945 -54.31
4 39.3747 50.2368 -52.9522
4 39.3747 52.9522 -50.2368
4 42.0902 50.2368 -50.2368
4 42.0902 52.9522 -52.9522
4 43.448 48.879 -54.31
4 43.448 51.5945 -51.5945
4 46.1635 48.879 -51.5945
4 46.1635 51.5945 -54.31
4 44.8058 50.2368 -52.9522
4 44.8058 52.9522 -50.2368
4 47.5213 50.2368 -50.2368
4 47.5213 52.9522 -52.9522
4 48.879 48.879 -54.31
4 48.879 51.5945 -51.5945
4 51.5945 48.879 -51.5945
4 51.5945 51.5945 -54.31
4 50.2368 50.2368 -52.9522
4 50.2368 52.9522 -50.2368
4 52.9522 50.2368 -50.2368
4 52.9522 52.9522 -52.9522
4 0 0 -48.879
3 2.68974 2.59395 -19.3108
4 2.7155 2.7155 -48.879
4 1.35775 1.35775 -47.5213
3 1.36456 5.93456 -18.7269
3 4.02934 4.04877 -18.058
4 4.07325 4.07325 -47.5213
4 5.431 0 -48.879
3 5.48176 5.3277 -19.3395
3 8.10821 2.66355 -19.3055
4 8.1465 2.7155 -48.879
4 6.78875 1.35775 -47.5213
3 6.73462 6.78252 -17.9203
3 9.53324 4.14809 -17.9256
4 9.50425 4.07325 -47.5213
4 10.862 0 -48.879
3 10.8582 5.44232 -19.3701
3 13.5403 2.67282 -19.3292
4 13.5775 2.7155 -48.879
4 12.2197 1.35775 -47.5213
3 12.1916 6.74055 -17.9166
3 14.8274 4.06675 -17.9884
4 14.9352 4.07325 -47.5213
4 16.293 0 -48.879
3 16.2683 5.45064 -19.3294
1 19.0993 2.73196 -19.3133
4 19.0085 2.7155 -48.879
4 17.6507 1.35775 -47.5213
1 17.6442 6.87017 -18.0569
1 20.4076 4.15432 -17.9437
4 20.3663 4.07325 -47.5213
4 21.724 0 -48.879
1 21.7467 5.48382 -19.3469
1 24.4579 2.70571 -19.3294
4 24.4395 2.7155 -48.879
4 23.0817 1.35775 -47.5213
1 23.1419 6.74652 -17.9674
1 25.828 4.11207 -18.0042
4 25.7973 4.07325 -47.5213
4 27.155 0 -48.879
1 27.2081 5.39794 -19.2849
1 29.9304 2.7078 -19.3406
4 29.8705 2.7155 -48.879
4 28.5128 1.35775 -47.5213
1 28.6002 6.76759 -17.9821
1 31.3185 4.10389 -18.0716
4 31.2282 4.07325 -47.5213
4 32.586 0 -48.879
1 32.6032 5.47169 -19.3657
1 35.3496 2.76763 -19.4233
4 35.3015 2.7155 -48.879
4 33.9438 1.35775 -47.5213
1 34.1024 6.74435 -18.0616
1 36.7904 3.98585 -18.0856
4 36.6593 4.07325 -47.5213
4 38.017 0 -48.879
1 38.004 5.38861 -19.288
1 40.7911 2.71139 -19.3859
4 40.7325 2.7155 -48.879
4 39.3747 1.35775 -47.5213
1 39.4425 6.78814 -18.1463
1 42.2851 4.04572 -18.1605
4 42.0902 4.07325 -47.5213
4 43.448 0 -48.879
1 43.5874 5.47967 -19.4401
1 46.2207 2.74758 -19.4537
4 46.1635 2.7155 -48.879
4 44.8058 1.35775 -47.5213
1 45.0934 6.76741 -18.1868
1 47.8044 3.98465 -18.2943
4 47.5213 4.07325 -47.5213
4 48.879 0 -48.879
1 49.0625 5.46781 -19.4163
1 51.797 3.01819 -19.4107
4 51.5945 2.7155 -48.879
4 50.2368 1.35775 -47.5213
1 50.7759 6.72043 -18.5958
1 53.5496 4.02387 -18.3281
4 52.9522 4.07325 -47.5213
4 0 5.431 -48.879
3 2.56939 7.93838 -19.329
4 2.7155 8.1465 -48.879
4 1.35775 6.78875 -47.5213
3 1.35943 11.3523 -18.6791
3 3.96462 9.27883 -18.0129
4 4.07325 9.50425 -47.5213
4 5.431 5.431 -48.879
3 5.36477 10.7421 -19.3188
3 8.12775 8.12262 -19.3806
4 8.1465 8.1465 -48.879
4 6.78875 6.78875 -47.5213
3 6.67626 12.2412 -17.9607
3 9.56074 9.42013 -18.0779
4 9.50425 9.50425 -47.5213
4 10.862 5.431 -48.879
3 10.9036 10.9013 -19.3189
3 13.5226 8.16203 -19.238
4 13.5775 8.1465 -48.879
4 12.2197 6.78875 -47.5213
3 12.2367 12.2484 -17.952
3 14.9157 9.59064 -18.0197
4 14.9352 9.50425 -47.5213
4 16.293 5.431 -48.879
3 16.276 10.9084 -19.3348
1 19.0441 8.17629 -19.308
4 19.0085 8.1465 -48.879
4 17.6507 6.78875 -47.5213
1 17.7216 12.2054 -18.0614
1 20.4601 9.55014 -17.9983
4 20.3663 9.50425 -47.5213
4 21.724 5.431 -48.879
1 21.7713 10.8831 -19.3662
1 24.4667 8.1387 -19.3578
4 24.4395 8.1465 -48.879
4 23.0817 6.78875 -47.5213
1 23.2285 12.1447 -18.0376
1 25.8897 9.49897 -18.0215
4 25.7973 9.50425 -47.5213
4 27.155 5.431 -48.879
1 27.1613 10.8504 -19.3405
1 29.862 8.11701 -19.3662
4 29.8705 8.1465 -48.879
4 28.5128 6.78875 -47.5213
1 28.4967 12.2516 -18.0353
1 31.3273 9.55713 -18.167
4 31.2282 9.50425 -47.5213
4 32.586 5.431 -48.879
1 32.7109 10.9336 -19.478
1 35.3154 8.16916 -19.372
4 35.3015 8.1465 -48.879
4 33.9438 6.78875 -47.5213
1 34.0797 12.1745 -18.1758
1 36.7552 9.49934 -18.1729
4 36.6593 9.50425 -47.5213
4 38.017 5.431 -48.879
1 38.0648 10.9431 -19.4414
1 40.8017 8.22614 -19.4252
4 40.7325 8.1465 -48.879
4 39.3747 6.78875 -47.5213
1 39.4982 12.2818 -18.1075
1 42.3178 9.4454 -18.2257
4 42.0902 9.50425 -47.5213
4 43.448 5.431 -48.879
1 43.5706 10.8972 -19.4383
1 46.3023 8.21525 -19.3943
4 46.1635 8.1465 -48.879
4 44.8058 6.78875 -47.5213
1 45.0658 12.2157 -18.1784
1 47.9904 9.53919 -18.2342
4 47.5213 9.50425 -47.5213
4 48.879 5.431 -48.879
1 49.1765 11.1386 -19.436
1 52.0531 8.55284 -19.4937
4 51.5945 8.1465 -48.879
4 50.2368 6.78875 -47.5213
1 50.6983 12.3629 -18.2385
1 53.596 10.4733 -19.0582
4 52.9522 9.50425 -47.5213
4 0 10.862 -48.879
3 2.55836 13.4526 -19.3843
4 2.7155 13.5775 -48.879
4 1.35775 12.2197 -47.5213
3 1.29211 17.7697 -17.4978
3 3.90203 14.8302 -18.0622
4 4.07325 14.9352 -47.5213
4 5.431 10.862 -48.879
3 5.35432 16.2039 -19.3471
3 8.0408 13.5072 -19.3412
4 8.1465 13.5775 -48.879
4 6.78875 12.2197 -47.5213
3 6.68246 17.5515 -17.8819
3 9.41465 14.8895 -18.0347
4 9.50425 14.9352 -47.5213
4 10.862 10.862 -48.879
3 10.7979 16.3119 -19.2715
3 13.5379 13.5565 -19.3007
4 13.5775 13.5775 -48.879
4 12.2197 12.2197 -47.5213
3 12.175 17.6638 -17.9455
3 14.9566 14.9853 -17.9935
4 14.9352 14.9352 -47.5213
4 16.293 10.862 -48.879
3 16.3526 16.2797 -19.3473
1 19.0955 13.5981 -19.2226
4 19.0085 13.5775 -48.879
4 17.6507 12.2197 -47.5213
1 17.7028 17.6688 -17.9986
1 20.5364 14.97 -18.0361
4 20.3663 14.9352 -47.5213
4 21.724 10.862 -48.879
1 21.8552 16.3102 -19.3253
1 24.5214 13.5978 -19.3185
4 24.4395 13.5775 -48.879
4 23.0817 12.2197 -47.5213
1 23.1949 17.6929 -18.0954
1 25.85 15.0094 -18.0622
4 25.7973 14.9352 -47.5213
4 27.155 10.862 -48.879
1 27.2805 16.3621 -19.3997
1 29.877 13.611 -19.3855
4 29.8705 13.5775 -48.879
4 28.5128 12.2197 -47.5213
1 28.6045 17.7957 -18.1383
1 31.3432 14.9367 -18.1173
4 31.2282 14.9352 -47.5213
4 32.586 10.862 -48.879
1 32.6438 16.3668 -19.4239
1 35.3981 13.6524 -19.3754
4 35.3015 13.5775 -48.879
4 33.9438 12.2197 -47.5213
1 34.0139 17.7573 -18.1331
1 36.8134 14.9799 -18.087
4 36.6593 14.9352 -47.5213
4 38.017 10.862 -48.879
1 38.128 16.3753 -19.405
1 40.7845 13.6048 -19.4166
4 40.7325 13.5775 -48.879
4 39.3747 12.2197 -47.5213
1 39.6636 17.7471 -18.133
1 42.2408 14.9427 -18.1296
4 42.0902 14.9352 -47.5213
4 43.448 10.862 -48.879
1 43.5163 16.3357 -19.4241
1 46.307 13.6648 -19.3832
4 46.1635 13.5775 -48.879
4 44.8058 12.2197 -47.5213
1 45.095 17.5579 -18.1731
1 47.8678 14.9636 -18.2266
4 47.5213 14.9352 -47.5213
4 48.879 10.862 -48.879
1 49.067 16.5158 -19.4077
1 52.0297 13.9207 -19.4086
4 51.5945 13.5775 -48.879
4 50.2368 12.2197 -47.5213
1 50.7118 17.9264 -18.3387
1 53.5331 15.867 -19.2937
4 52.9522 14.9352 -47.5213
4 0 16.293 -48.879
3 2.56324 18.883 -19.2605
4 2.7155 19.0085 -48.879
4 1.35775 17.6507 -47.5213
3 1.18981 22.1146 -18.854
3 4.03232 20.2461 -18.0513
4 4.07325 20.3663 -47.5213
4 5.431 16.293 -48.879
3 5.37128 21.6219 -19.2967
3 8.06675 18.9687 -19.3055
4 8.1465 19.0085 -48.879
4 6.78875 17.6507 -47.5213
3 6.69138 23.0722 -17.9828
3 9.3497 20.3665 -17.9661
4 9.50425 20.3663 -47.5213
4 10.862 16.293 -48.879
3 10.7997 21.6559 -19.4339
3 13.5274 19.0176 -19.3203
4 13.5775 19.0085 -48.879
4 12.2197 17.6507 -47.5213
3 12.1626 23.0686 -18.1015
3 14.9359 20.3929 -17.9006
4 14.9352 20.3663 -47.5213
4 16.293 16.293 -48.879
3 16.312 21.7466 -19.2701
1 18.9941 19.0185 -19.3039
4 19.0085 19.0085 -48.879
4 17.6507 17.6507 -47.5213
1 17.7349 23.1543 -17.9731
1 20.521 20.3124 -17.9518
4 20.3663 20.3663 -47.5213
4 21.724 16.293 -48.879
1 21.8248 21.7407 -19.322
1 24.5518 19.0699 -19.3622
4 24.4395 19.0085 -48.879
4 23.0817 17.6507 -47.5213
1 23.1938 23.1224 -18.0581
1 26.0106 20.3237 -18.0176
4 25.7973 20.3663 -47.5213
4 27.155 16.293 -48.879
1 27.2013 21.7276 -19.3395
1 29.9544 19.1353 -19.4375
4 29.8705 19.0085 -48.879
4 28.5128 17.6507 -47.5213
1 28.6824 23.138 -18.0301
1 31.3399 20.4816 -18.126
4 31.2282 20.3663 -47.5213
4 32.586 16.293 -48.879
1 32.7494 21.8491 -19.3936
1 35.4333 19.0893 -19.3743
4 35.3015 19.0085 -48.879
4 33.9438 17.6507 -47.5213
1 34.0529 23.1307 -18.028
1 36.868 20.3576 -18.0428
4 36.6593 20.3663 -47.5213
4 38.017 16.293 -48.879
1 38.0674 21.7831 -19.3869
1 40.8204 19.1255 -19.411
4 40.7325 19.0085 -48.879
4 39.3747 17.6507 -47.5213
1 39.3954 23.1795 -18.1599
1 42.2763 20.3612 -18.1273
4 42.0902 20.3663 -47.5213
4 43.448 16.293 -48.879
1 43.4625 21.7371 -19.5087
1 46.2712 19.1037 -19.3134
4 46.1635 19.0085 -48.879
4 44.8058 17.6507 -47.5213
1 44.9624 23.0656 -18.2492
1 47.8511 20.3706 -18.1469
4 47.5213 20.3663 -47.5213
4 48.879 16.293 -48.879
1 49.0613 21.886 -19.4136
1 51.9552 19.4679 -19.4786
4 51.5945 19.0085 -48.879
4 50.2368 17.6507 -47.5213
1 50.6298 23.3699 -18.448
1 53.3297 21.3852 -18.9715
4 52.9522 20.3663 -47.5213
4 0 21.724 -48.879
3 2.49321 24.2334 -19.2675
4 2.7155 24.4395 -48.879
4 1.35775 23.0817 -47.5213
3 1.33108 28.9126 -17.6223
3 3.79596 25.7057 -17.8116
4 4.07325 25.7973 -47.5213
4 5.431 21.724 -48.879
3 5.26743 27.0431 -19.2227
3 8.05519 24.3975 -19.3704
4 8.1465 24.4395 -48.879
4 6.78875 23.0817 -47.5213
3 6.67808 28.4028 -17.9794
3 9.40093 25.6836 -18.016
4 9.50425 25.7973 -47.5213
4 10.862 21.724 -48.879
3 10.7385 27.0542 -19.3052
3 13.5425 24.4536 -19.3297
4 13.5775 24.4395 -48.879
4 12.2197 23.0817 -47.5213
3 12.1722 28.4123 -17.8286
3 14.8722 25.7721 -17.9749
4 14.9352 25.7973 -47.5213
4 16.293 21.724 -48.879
3 16.2911 27.1783 -19.3146
1 19.0579 24.5572 -19.2928
4 19.0085 24.4395 -48.879
4 17.6507 23.0817 -47.5213
1 17.5593 28.6167 -18.0285
1 20.397 25.9349 -17.9858
4 20.3663 25.7973 -47.5213
4 21.724 21.724 -48.879
1 21.7954 27.1076 -19.2952
1 24.4327 24.4769 -19.4083
4 24.4395 24.4395 -48.879
4 23.0817 23.0817 -47.5213
1 23.0611 28.4189 -17.9129
1 25.8348 25.822 -18.0854
4 25.7973 25.7973 -47.5213
4 27.155 21.724 -48.879
1 27.1636 27.1264 -19.4847
1 29.8705 24.5204 -19.4071
4 29.8705 24.4395 -48.879
4 28.5128 23.0817 -47.5213
1 28.475 28.4639 -18.0822
1 31.2846 25.76 -17.9771
4 31.2282 25.7973 -47.5213
4 32.586 21.724 -48.879