15353
 Atoms. Timestep: 40000
4 0 0 -54.31
4 0 2.7155 -51.5945
4 2.7155 0 -51.5945
4 2.7155 2.7155 -54.31
4 1.35775 1.35775 -52.9522
4 1.35775 4.07325 -50.2368
4 4.07325 1.35775 -50.2368
4 4.07325 4.07325 -52.9522
4 5.431 0 -54.31
4 5.431 2.7155 -51.5945
4 8.1465 0 -51.5945
4 8.1465 2.7155 -54.31
4 6.78875 1.35775 -52.9522
4 6.78875 4.07325 -50.2368
4 9.50425 1.35775 -50.2368
4 9.50425 4.07325 -52.9522
4 10.862 0 -54.31
4 10.862 2.7155 -51.5945
4 13.5775 0 -51.5945
4 13.5775 2.7155 -54.31
4 12.2197 1.35775 -52.9522
4 12.2197 4.07325 -50.2368
4 14.9352 1.35775 -50.2368
4 14.9352 4.07325 -52.9522
4 16.293 0 -54.31
4 16.293 2.7155 -51.5945
4 19.0085 0 -51.5945
4 19.0085 2.7155 -54.31
4 17.6507 1.35775 -52.9522
4 17.6507 4.07325 -50.2368
4 20.3663 1.35775 -50.2368
4 20.3663 4.07325 -52.9522
4 21.724 0 -54.31
4 21.724 2.7155 -51.5945
4 24.4395 0 -51.5945
4 24.4395 2.7155 -54.31
4 23.0817 1.35775 -52.9522
4 23.0817 4.07325 -50.2368
4 25.7973 1.35775 -50.2368
4 25.7973 4.07325 -52.9522
4 27.155 0 -54.31
4 27.155 2.7155 -51.5945
4 29.8705 0 -51.5945
4 29.8705 2.7155 -54.31
4 28.5128 1.35775 -52.9522
4 28.5128 4.07325 -50.2368
4 31.2282 1.35775 -50.2368
4 31.2282 4.07325 -52.9522
4 32.586 0 -54.31
4 32.586 2.7155 -51.5945
4 35.3015 0 -51.5945
4 35.3015 2.7155 -54.31
4 33.9438 1.35775 -52.9522
4 33.9438 4.07325 -50.2368
4 36.6593 1.35775 -50.2368
4 36.6593 4.07325 -52.9522
4 38.017 0 -54.31
4 38.017 2.7155 -51.5945
4 40.7325 0 -51.5945
4 40.7325 2.7155 -54.31
4 39.3747 1.35775 -52.9522
4 39.3747 4.07325 -50.2368
4 42.0902 1.35775 -50.2368
4 42.0902 4.07325 -52.9522
4 43.448 0 -54.31
4 43.448 2.7155 -51.5945
4 46.1635 0 -51.5945
4 46.1635 2.7155 -54.31
4 44.8058 1.35775 -52.9522
4 44.8058 4.07325 -50.2368
4 47.5213 1.35775 -50.2368
4 47.5213 4.07325 -52.9522
4 48.879 0 -54.31
4 48.879 2.7155 -51.5945
4 51.5945 0 -51.5945
4 51.5945 2.7155 -54.31
4 50.2368 1.35775 -52.9522
4 50.2368 4.07325 -50.2368
4 52.9522 1.35775 -50.2368
4 52.9522 4.07325 -52.9522
4 0 5.431 -54.31
4 0 8.1465 -51.5945
4 2.7155 5.431 -51.5945
4 2.7155 8.1465 -54.31
4 1.35775 6.78875 -52.9522
4 1.35775 9.50425 -50.2368
4 4.07325 6.78875 -50.2368
4 4.07325 9.50425 -52.9522
4 5.431 5.431 -54.31
4 5.431 8.1465 -51.5945
4 8.1465 5.431 -51.5945
4 8.1465 8.1465 -54.31
4 6.78875 6.78875 -52.9522
4 6.78875 9.50425 -50.2368
4 9.50425 6.78875 -50.2368
4 9.50425 9.50425 -52.9522
4 10.862 5.431 -54.31
4 10.862 8.1465 -51.5945
4 13.5775 5.431 -51.5945
4 13.5775 8.1465 -54.31
4 12.2197 6.78875 -52.9522
4 12.2197 9.50425 -50.2368
4 14.9352 6.78875 -50.2368
4 14.9352 9.50425 -52.9522
4 16.293 5.431 -54.31
4 16.293 8.1465 -51.5945
4 19.0085 5.431 -51.5945
4 19.0085 8.1465 -54.31
4 17.6507 6.78875 -52.9522
4 17.6507 9.50425 -50.2368
4 20.3663 6.78875 -50.2368
4 20.3663 9.50425 -52.9522
4 21.724 5.431 -54.31
4 21.724 8.1465 -51.5945
4 24.4395 5.431 -51.5945
4 24.4395 8.1465 -54.31
4 23.0817 6.78875 -52.9522
4 23.0817 9.50425 -50.2368
4 25.7973 6.78875 -50.2368
4 25.7973 9.50425 -52.9522
4 27.155 5.431 -54.31
4 27.155 8.1465 -51.5945
4 29.8705 5.431 -51.5945
4 29.8705 8.1465 -54.31
4 28.5128 6.78875 -52.9522
4 28.5128 9.50425 -50.2368
4 31.2282 6.78875 -50.2368
4 31.2282 9.50425 -52.9522
4 32.586 5.431 -54.31
4 32.586 8.1465 -51.5945
4 35.3015 5.431 -51.5945
4 35.3015 8.1465 -54.31
4 33.9438 6.78875 -52.9522
4 33.9438 9.50425 -50.2368
4 36.6593 6.78875 -50.2368
4 36.6593 9.50425 -52.9522
4 38.017 5.431 -54.31
4 38.017 8.1465 -51.5945
4 40.7325 5.431 -51.5945
4 40.7325 8.1465 -54.31
4 39.3747 6.78875 -52.9522
4 39.3747 9.50425 -50.2368
4 42.0902 6.78875 -50.2368
4 42.0902 9.50425 -52.9522
4 43.448 5.431 -54.31
4 43.448 8.1465 -51.5945
4 46.1635 5.431 -51.5945
4 46.1635 8.1465 -54.31
4 44.8058 6.78875 -52.9522
4 44.8058 9.50425 -50.2368
4 47.5213 6.78875 -50.2368
4 47.5213 9.50425 -52.9522
4 48.879 5.431 -54.31
4 48.879 8.1465 -51.5945
4 51.5945 5.431 -51.5945
4 51.5945 8.1465 -54.31
4 50.2368 6.78875 -52.9522
4 50.2368 9.50425 -50.2368
4 52.9522 6.78875 -50.2368
4 52.9522 9.50425 -52.9522
4 0 10.862 -54.31
4 0 13.5775 -51.5945
4 2.7155 10.862 -51.5945
4 2.7155 13.5775 -54.31
4 1.35775 12.2197 -52.9522
4 1.35775 14.9352 -50.2368
4 4.07325 12.2197 -50.2368
4 4.07325 14.9352 -52.9522
4 5.431 10.862 -54.31
4 5.431 13.5775 -51.5945
4 8.1465 10.862 -51.5945
4 8.1465 13.5775 -54.31
4 6.78875 12.2197 -52.9522
4 6.78875 14.9352 -50.2368
4 9.50425 12.2197 -50.2368
4 9.50425 14.9352 -52.9522
4 10.862 10.862 -54.31
4 10.862 13.5775 -51.5945
4 13.5775 10.862 -51.5945
4 13.5775 13.5775 -54.31
4 12.2197 12.2197 -52.9522
4 12.2197 14.9352 -50.2368
4 14.9352 12.2197 -50.2368
4 14.9352 14.9352 -52.9522
4 16.293 10.862 -54.31
4 16.293 13.5775 -51.5945
4 19.0085 10.862 -51.5945
4 19.0085 13.5775 -54.31
4 17.6507 12.2197 -52.9522
4 17.6507 14.9352 -50.2368
4 20.3663 12.2197 -50.2368
4 20.3663 14.9352 -52.9522
4 21.724 10.862 -54.31
4 21.724 13.5775 -51.5945
4 24.4395 10.862 -51.5945
4 24.4395 13.5775 -54.31
4 23.0817 12.2197 -52.9522
4 23.0817 14.9352 -50.2368
4 25.7973 12.2197 -50.2368
4 25.7973 14.9352 -52.9522
4 27.155 10.862 -54.31
4 27.155 13.5775 -51.5945
4 29.8705 10.862 -51.5945
4 29.8705 13.5775 -54.31
4 28.5128 12.2197 -52.9522
4 28.5128 14.9352 -50.2368
4 31.2282 12.2197 -50.2368
4 31.2282 14.9352 -52.9522
4 32.586 10.862 -54.31
4 32.586 13.5775 -51.5945
4 35.3015 10.862 -51.5945
4 35.3015 13.5775 -54.31
4 33.9438 12.2197 -52.9522
4 33.9438 14.9352 -50.2368
4 36.6593 12.2197 -50.2368
4 36.6593 14.9352 -52.9522
4 38.017 10.862 -54.31
4 38.017 13.5775 -51.5945
4 40.7325 10.862 -51.5945
4 40.7325 13.5775 -54.31
4 39.3747 12.2197 -52.9522
4 39.3747 14.9352 -50.2368
4 42.0902 12.2197 -50.2368
4 42.0902 14.9352 -52.9522
4 43.448 10.862 -54.31
4 43.448 13.5775 -51.5945
4 46.1635 10.862 -51.5945
4 46.1635 13.5775 -54.31
4 44.8058 12.2197 -52.9522
4 44.8058 14.9352 -50.2368
4 47.5213 12.2197 -50.2368
4 47.5213 14.9352 -52.9522
4 48.879 10.862 -54.31
4 48.879 13.5775 -51.5945
4 51.5945 10.862 -51.5945
4 51.5945 13.5775 -54.31
4 50.2368 12.2197 -52.9522
4 50.2368 14.9352 -50.2368
4 52.9522 12.2197 -50.2368
4 52.9522 14.9352 -52.9522
4 0 16.293 -54.31
4 0 19.0085 -51.5945
4 2.7155 16.293 -51.5945
4 2.7155 19.0085 -54.31
4 1.35775 17.6507 -52.9522
4 1.35775 20.3663 -50.2368
4 4.07325 17.6507 -50.2368
4 4.07325 20.3663 -52.9522
4 5.431 16.293 -54.31
4 5.431 19.0085 -51.5945
4 8.1465 16.293 -51.5945
4 8.1465 19.0085 -54.31
4 6.78875 17.6507 -52.9522
4 6.78875 20.3663 -50.2368
4 9.50425 17.6507 -50.2368
4 9.50425 20.3663 -52.9522
4 10.862 16.293 -54.31
4 10.862 19.0085 -51.5945
4 13.5775 16.293 -51.5945
4 13.5775 19.0085 -54.31
4 12.2197 17.6507 -52.9522
4 12.2197 20.3663 -50.2368
4 14.9352 17.6507 -50.2368
4 14.9352 20.3663 -52.9522
4 16.293 16.293 -54.31
4 16.293 19.0085 -51.5945
4 19.0085 16.293 -51.5945
4 19.0085 19.0085 -54.31
4 17.6507 17.6507 -52.9522
4 17.6507 20.3663 -50.2368
4 20.3663 17.6507 -50.2368
4 20.3663 20.3663 -52.9522
4 21.724 16.293 -54.31
4 21.724 19.0085 -51.5945
4 24.4395 16.293 -51.5945
4 24.4395 19.0085 -54.31
4 23.0817 17.6507 -52.9522
4 23.0817 20.3663 -50.2368
4 25.7973 17.6507 -50.2368
4 25.7973 20.3663 -52.9522
4 27.155 16.293 -54.31
4 27.155 19.0085 -51.5945
4 29.8705 16.293 -51.5945
4 29.8705 19.0085 -54.31
4 28.5128 17.6507 -52.9522
4 28.5128 20.3663 -50.2368
4 31.2282 17.6507 -50.2368
4 31.2282 20.3663 -52.9522
4 32.586 16.293 -54.31
4 32.586 19.0085 -51.5945
4 35.3015 16.293 -51.5945
4 35.3015 19.0085 -54.31
4 33.9438 17.6507 -52.9522
4 33.9438 20.3663 -50.2368
4 36.6593 17.6507 -50.2368
4 36.6593 20.3663 -52.9522
4 38.017 16.293 -54.31
4 38.017 19.0085 -51.5945
4 40.7325 16.293 -51.5945
4 40.7325 19.0085 -54.31
4 39.3747 17.6507 -52.9522
4 39.3747 20.3663 -50.2368
4 42.0902 17.6507 -50.2368
4 42.0902 20.3663 -52.9522
4 43.448 16.293 -54.31
4 43.448 19.0085 -51.5945
4 46.1635 16.293 -51.5945
4 46.1635 19.0085 -54.31
4 44.8058 17.6507 -52.9522
4 44.8058 20.3663 -50.2368
4 47.5213 17.6507 -50.2368
4 47.5213 20.3663 -52.9522
4 48.879 16.293 -54.31
4 48.879 19.0085 -51.5945
4 51.5945 16.293 -51.5945
4 51.5945 19.0085 -54.31
4 50.2368 17.6507 -52.9522
4 50.2368 20.3663 -50.2368
4 52.9522 17.6507 -50.2368
4 52.9522 20.3663 -52.9522
4 0 21.724 -54.31
4 0 24.4395 -51.5945
4 2.7155 21.724 -51.5945
4 2.7155 24.4395 -54.31
4 1.35775 23.0817 -52.9522
4 1.35775 25.7973 -50.2368
4 4.07325 23.0817 -50.2368
4 4.07325 25.7973 -52.9522
4 5.431 21.724 -54.31
4 5.431 24.4395 -51.5945
4 8.1465 21.724 -51.5945
4 8.1465 24.4395 -54.31
4 6.78875 23.0817 -52.9522
4 6.78875 25.7973 -50.2368
4 9.50425 23.0817 -50.2368
4 9.50425 25.7973 -52.9522
4 10.862 21.724 -54.31
4 10.862 24.4395 -51.5945
4 13.5775 21.724 -51.5945
4 13.5775 24.4395 -54.31
4 12.2197 23.0817 -52.9522
4 12.2197 25.7973 -50.2368
4 14.9352 23.0817 -50.2368
4 14.9352 25.7973 -52.9522
4 16.293 21.724 -54.31
4 16.293 24.4395 -51.5945
4 19.0085 21.724 -51.5945
4 19.0085 24.4395 -54.31
4 17.6507 23.0817 -52.9522
4 17.6507 25.7973 -50.2368
4 20.3663 23.0817 -50.2368
4 20.3663 25.7973 -52.9522
4 21.724 21.724 -54.31
4 21.724 24.4395 -51.5945
4 24.4395 21.724 -51.5945
4 24.4395 24.4395 -54.31
4 23.0817 23.0817 -52.9522
4 23.0817 25.7973 -50.2368
4 25.7973 23.0817 -50.2368
4 25.7973 25.7973 -52.9522
4 27.155 21.724 -54.31
4 27.155 24.4395 -51.5945
4 29.8705 21.724 -51.5945
4 29.8705 24.4395 -54.31
4 28.5128 23.0817 -52.9522
4 28.5128 25.7973 -50.2368
4 31.2282 23.0817 -50.2368
4 31.2282 25.7973 -52.9522
4 32.586 21.724 -54.31
4 32.586 24.4395 -51.5945
4 35.3015 21.724 -51.5945
4 35.3015 24.4395 -54.31
4 33.9438 23.0817 -52.9522
4 33.9438 25.7973 -50.2368
4 36.6593 23.0817 -50.2368
4 36.6593 25.7973 -52.9522
4 38.017 21.724 -54.31
4 38.017 24.4395 -51.5945
4 40.7325 21.724 -51.5945
4 40.7325 24.4395 -54.31
4 39.3747 23.0817 -52.9522
4 39.3747 25.7973 -50.2368
4 42.0902 23.0817 -50.2368
4 42.0902 25.7973 -52.9522
4 43.448 21.724 -54.31
4 43.448 24.4395 -51.5945
4 46.1635 21.724 -51.5945
4 46.1635 24.4395 -54.31
4 44.8058 23.0817 -52.9522
4 44.8058 25.7973 -50.2368
4 47.5213 23.0817 -50.2368
4 47.5213 25.7973 -52.9522
4 48.879 21.724 -54.31
4 48.879 24.4395 -51.5945
4 51.5945 21.724 -51.5945
4 51.5945 24.4395 -54.31
4 50.2368 23.0817 -52.9522
4 50.2368 25.7973 -50.2368
4 52.9522 23.0817 -50.2368
4 52.9522 25.7973 -52.9522
4 0 27.155 -54.31
4 0 29.8705 -51.5945
4 2.7155 27.155 -51.5945
4 2.7155 29.8705 -54.31
4 1.35775 28.5128 -52.9522
4 1.35775 31.2282 -50.2368
4 4.07325 28.5128 -50.2368
4 4.07325 31.2282 -52.9522
4 5.431 27.155 -54.31
4 5.431 29.8705 -51.5945
4 8.1465 27.155 -51.5945
4 8.1465 29.8705 -54.31
4 6.78875 28.5128 -52.9522
4 6.78875 31.2282 -50.2368
4 9.50425 28.5128 -50.2368
4 9.50425 31.2282 -52.9522
4 10.862 27.155 -54.31
4 10.862 29.8705 -51.5945
4 13.5775 27.155 -51.5945
4 13.5775 29.8705 -54.31
4 12.2197 28.5128 -52.9522
4 12.2197 31.2282 -50.2368
4 14.9352 28.5128 -50.2368
4 14.9352 31.2282 -52.9522
4 16.293 27.155 -54.31
4 16.293 29.8705 -51.5945
4 19.0085 27.155 -51.5945
4 19.0085 29.8705 -54.31
4 17.6507 28.5128 -52.9522
4 17.6507 31.2282 -50.2368
4 20.3663 28.5128 -50.2368
4 20.3663 31.2282 -52.9522
4 21.724 27.155 -54.31
4 21.724 29.8705 -51.5945
4 24.4395 27.155 -51.5945
4 24.4395 29.8705 -54.31
4 23.0817 28.5128 -52.9522
4 23.0817 31.2282 -50.2368
4 25.7973 28.5128 -50.2368
4 25.7973 31.2282 -52.9522
4 27.155 27.155 -54.31
4 27.155 29.8705 -51.5945
4 29.8705 27.155 -51.5945
4 29.8705 29.8705 -54.31
4 28.5128 28.5128 -52.9522
4 28.5128 31.2282 -50.2368
4 31.2282 28.5128 -50.2368
4 31.2282 31.2282 -52.9522
4 32.586 27.155 -54.31
4 32.586 29.8705 -51.5945
4 35.3015 27.155 -51.5945
4 35.3015 29.8705 -54.31
4 33.9438 28.5128 -52.9522
4 33.9438 31.2282 -50.2368
4 36.6593 28.5128 -50.2368
4 36.6593 31.2282 -52.9522
4 38.017 27.155 -54.31
4 38.017 29.8705 -51.5945
4 40.7325 27.155 -51.5945
4 40.7325 29.8705 -54.31
4 39.3747 28.5128 -52.9522
4 39.3747 31.2282 -50.2368
4 42.0902 28.5128 -50.2368
4 42.0902 31.2282 -52.9522
4 43.448 27.155 -54.31
4 43.448 29.8705 -51.5945
4 46.1635 27.155 -51.5945
4 46.1635 29.8705 -54.31
4 44.8058 28.5128 -52.9522
4 44.8058 31.2282 -50.2368
4 47.5213 28.5128 -50.2368
4 47.5213 31.2282 -52.9522
4 48.879 27.155 -54.31
4 48.879 29.8705 -51.5945
4 51.5945 27.155 -51.5945
4 51.5945 29.8705 -54.31
4 50.2368 28.5128 -52.9522
4 50.2368 31.2282 -50.2368
4 52.9522 28.5128 -50.2368
4 52.9522 31.2282 -52.9522
4 0 32.586 -54.31
4 0 35.3015 -51.5945
4 2.7155 32.586 -51.5945
4 2.7155 35.3015 -54.31
4 1.35775 33.9438 -52.9522
4 1.35775 36.6593 -50.2368
4 4.07325 33.9438 -50.2368
4 4.07325 36.6593 -52.9522
4 5.431 32.586 -54.31
4 5.431 35.3015 -51.5945
4 8.1465 32.586 -51.5945
4 8.1465 35.3015 -54.31
4 6.78875 33.9438 -52.9522
4 6.78875 36.6593 -50.2368
4 9.50425 33.9438 -50.2368
4 9.50425 36.6593 -52.9522
4 10.862 32.586 -54.31
4 10.862 35.3015 -51.5945
4 13.5775 32.586 -51.5945
4 13.5775 35.3015 -54.31
4 12.2197 33.9438 -52.9522
4 12.2197 36.6593 -50.2368
4 14.9352 33.9438 -50.2368
4 14.9352 36.6593 -52.9522
4 16.293 32.586 -54.31
4 16.293 35.3015 -51.5945
4 19.0085 32.586 -51.5945
4 19.0085 35.3015 -54.31
4 17.6507 33.9438 -52.9522
4 17.6507 36.6593 -50.2368
4 20.3663 33.9438 -50.2368
4 20.3663 36.6593 -52.9522
4 21.724 32.586 -54.31
4 21.724 35.3015 -51.5945
4 24.4395 32.586 -51.5945
4 24.4395 35.3015 -54.31
4 23.0817 33.9438 -52.9522
4 23.0817 36.6593 -50.2368
4 25.7973 33.9438 -50.2368
4 25.7973 36.6593 -52.9522
4 27.155 32.586 -54.31
4 27.155 35.3015 -51.5945
4 29.8705 32.586 -51.5945
4 29.8705 35.3015 -54.31
4 28.5128 33.9438 -52.9522
4 28.5128 36.6593 -50.2368
4 31.2282 33.9438 -50.2368
4 31.2282 36.6593 -52.9522
4 32.586 32.586 -54.31
4 32.586 35.3015 -51.5945
4 35.3015 32.586 -51.5945
4 35.3015 35.3015 -54.31
4 33.9438 33.9438 -52.9522
4 33.9438 36.6593 -50.2368
4 36.6593 33.9438 -50.2368
4 36.6593 36.6593 -52.9522
4 38.017 32.586 -54.31
4 38.017 35.3015 -51.5945
4 40.7325 32.586 -51.5945
4 40.7325 35.3015 -54.31
4 39.3747 33.9438 -52.9522
4 39.3747 36.6593 -50.2368
4 42.0902 33.9438 -50.2368
4 42.0902 36.6593 -52.9522
4 43.448 32.586 -54.31
4 43.448 35.3015 -51.5945
4 46.1635 32.586 -51.5945
4 46.1635 35.3015 -54.31
4 44.8058 33.9438 -52.9522
4 44.8058 36.6593 -50.2368
4 47.5213 33.9438 -50.2368
4 47.5213 36.6593 -52.9522
4 48.879 32.586 -54.31
4 48.879 35.3015 -51.5945
4 51.5945 32.586 -51.5945
4 51.5945 35.3015 -54.31
4 50.2368 33.9438 -52.9522
4 50.2368 36.6593 -50.2368
4 52.9522 33.9438 -50.2368
4 52.9522 36.6593 -52.9522
4 0 38.017 -54.31
4 0 40.7325 -51.5945
4 2.7155 38.017 -51.5945
4 2.7155 40.7325 -54.31
4 1.35775 39.3747 -52.9522
4 1.35775 42.0902 -50.2368
4 4.07325 39.3747 -50.2368
4 4.07325 42.0902 -52.9522
4 5.431 38.017 -54.31
4 5.431 40.7325 -51.5945
4 8.1465 38.017 -51.5945
4 8.1465 40.7325 -54.31
4 6.78875 39.3747 -52.9522
4 6.78875 42.0902 -50.2368
4 9.50425 39.3747 -50.2368
4 9.50425 42.0902 -52.9522
4 10.862 38.017 -54.31
4 10.862 40.7325 -51.5945
4 13.5775 38.017 -51.5945
4 13.5775 40.7325 -54.31
4 12.2197 39.3747 -52.9522
4 12.2197 42.0902 -50.2368
4 14.9352 39.3747 -50.2368
4 14.9352 42.0902 -52.9522
4 16.293 38.017 -54.31
4 16.293 40.7325 -51.5945
4 19.0085 38.017 -51.5945
4 19.0085 40.7325 -54.31
4 17.6507 39.3747 -52.9522
4 17.6507 42.0902 -50.2368
4 20.3663 39.3747 -50.2368
4 20.3663 42.0902 -52.9522
4 21.724 38.017 -54.31
4 21.724 40.7325 -51.5945
4 24.4395 38.017 -51.5945
4 24.4395 40.7325 -54.31
4 23.0817 39.3747 -52.9522
4 23.0817 42.0902 -50.2368
4 25.7973 39.3747 -50.2368
4 25.7973 42.0902 -52.9522
4 27.155 38.017 -54.31
4 27.155 40.7325 -51.5945
4 29.8705 38.017 -51.5945
4 29.8705 40.7325 -54.31
4 28.5128 39.3747 -52.9522
4 28.5128 42.0902 -50.2368
4 31.2282 39.3747 -50.2368
4 31.2282 42.0902 -52.9522
4 32.586 38.017 -54.31
4 32.586 40.7325 -51.5945
4 35.3015 38.017 -51.5945
4 35.3015 40.7325 -54.31
4 33.9438 39.3747 -52.9522
4 33.9438 42.0902 -50.2368
4 36.6593 39.3747 -50.2368
4 36.6593 42.0902 -52.9522
4 38.017 38.017 -54.31
4 38.017 40.7325 -51.5945
4 40.7325 38.017 -51.5945
4 40.7325 40.7325 -54.31
4 39.3747 39.3747 -52.9522
4 39.3747 42.0902 -50.2368
4 42.0902 39.3747 -50.2368
4 42.0902 42.0902 -52.9522
4 43.448 38.017 -54.31
4 43.448 40.7325 -51.5945
4 46.1635 38.017 -51.5945
4 46.1635 40.7325 -54.31
4 44.8058 39.3747 -52.9522
4 44.8058 42.0902 -50.2368
4 47.5213 39.3747 -50.2368
4 47.5213 42.0902 -52.9522
4 48.879 38.017 -54.31
4 48.879 40.7325 -51.5945
4 51.5945 38.017 -51.5945
4 51.5945 40.7325 -54.31
4 50.2368 39.3747 -52.9522
4 50.2368 42.0902 -50.2368
4 52.9522 39.3747 -50.2368
4 52.9522 42.0902 -52.9522
4 0 43.448 -54.31
4 0 46.1635 -51.5945
4 2.7155 43.448 -51.5945
4 2.7155 46.1635 -54.31
4 1.35775 44.8058 -52.9522
4 1.35775 47.5213 -50.2368
4 4.07325 44.8058 -50.2368
4 4.07325 47.5213 -52.9522
4 5.431 43.448 -54.31
4 5.431 46.1635 -51.5945
4 8.1465 43.448 -51.5945
4 8.1465 46.1635 -54.31
4 6.78875 44.8058 -52.9522
4 6.78875 47.5213 -50.2368
4 9.50425 44.8058 -50.2368
4 9.50425 47.5213 -52.9522
4 10.862 43.448 -54.31
4 10.862 46.1635 -51.5945
4 13.5775 43.448 -51.5945
4 13.5775 46.1635 -54.31
4 12.2197 44.8058 -52.9522
4 12.2197 47.5213 -50.2368
4 14.9352 44.8058 -50.2368
4 14.9352 47.5213 -52.9522
4 16.293 43.448 -54.31
4 16.293 46.1635 -51.5945
4 19.0085 43.448 -51.5945
4 19.0085 46.1635 -54.31
4 17.6507 44.8058 -52.9522
4 17.6507 47.5213 -50.2368
4 20.3663 44.8058 -50.2368
4 20.3663 47.5213 -52.9522
4 21.724 43.448 -54.31
4 21.724 46.1635 -51.5945
4 24.4395 43.448 -51.5945
4 24.4395 46.1635 -54.31
4 23.0817 44.8058 -52.9522
4 23.0817 47.5213 -50.2368
4 25.7973 44.8058 -50.2368
4 25.7973 47.5213 -52.9522
4 27.155 43.448 -54.31
4 27.155 46.1635 -51.5945
4 29.8705 43.448 -51.5945
4 29.8705 46.1635 -54.31
4 28.5128 44.8058 -52.9522
4 28.5128 47.5213 -50.2368
4 31.2282 44.8058 -50.2368
4 31.2282 47.5213 -52.9522
4 32.586 43.448 -54.31
4 32.586 46.1635 -51.5945
4 35.3015 43.448 -51.5945
4 35.3015 46.1635 -54.31
4 33.9438 44.8058 -52.9522
4 33.9438 47.5213 -50.2368
4 36.6593 44.8058 -50.2368
4 36.6593 47.5213 -52.9522
4 38.017 43.448 -54.31
4 38.017 46.1635 -51.5945
4 40.7325 43.448 -51.5945
4 40.7325 46.1635 -54.31
4 39.3747 44.8058 -52.9522
4 39.3747 47.5213 -50.2368
4 42.0902 44.8058 -50.2368
4 42.0902 47.5213 -52.9522
4 43.448 43.448 -54.31
4 43.448 46.1635 -51.5945
4 46.1635 43.448 -51.5945
4 46.1635 46.1635 -54.31
4 44.8058 44.8058 -52.9522
4 44.8058 47.5213 -50.2368
4 47.5213 44.8058 -50.2368
4 47.5213 47.5213 -52.9522
4 48.879 43.448 -54.31
4 48.879 46.1635 -51.5945
4 51.5945 43.448 -51.5945
4 51.5945 46.1635 -54.31
4 50.2368 44.8058 -52.9522
4 50.2368 47.5213 -50.2368
4 52.9522 44.8058 -50.2368
4 52.9522 47.5213 -52.9522
4 0 48.879 -54.31
4 0 51.5945 -51.5945
4 2.7155 48.879 -51.5945
4 2.7155 51.5945 -54.31
4 1.35775 50.2368 -52.9522
4 1.35775 52.9522 -50.2368
4 4.07325 50.2368 -50.2368
4 4.07325 52.9522 -52.9522
4 5.431 48.879 -54.31
4 5.431 51.5945 -51.5945
4 8.1465 48.879 -51.5945
4 8.1465 51.5945 -54.31
4 6.78875 50.2368 -52.9522
4 6.78875 52.9522 -50.2368
4 9.50425 50.2368 -50.2368
4 9.50425 52.9522 -52.9522
4 10.862 48.879 -54.31
4 10.862 51.5945 -51.5945
4 13.5775 48.879 -51.5945
4 13.5775 51.5945 -54.31
4 12.2197 50.2368 -52.9522
4 12.2197 52.9522 -50.2368
4 14.9352 50.2368 -50.2368
4 14.9352 52.9522 -52.9522
4 16.293 48.879 -54.31
4 16.293 51.5945 -51.5945
4 19.0085 48.879 -51.5945
4 19.0085 51.5945 -54.31
4 17.6507 50.2368 -52.9522
4 17.6507 52.9522 -50.2368
4 20.3663 50.2368 -50.2368
4 20.3663 52.9522 -52.9522
4 21.724 48.879 -54.31
4 21.724 51.5945 -51.5945
4 24.4395 48.879 -51.5945
4 24.4395 51.5945 -54.31
4 23.0817 50.2368 -52.9522
4 23.0817 52.9522 -50.2368
4 25.7973 50.2368 -50.2368
4 25.7973 52.9522 -52.9522
4 27.155 48.879 -54.31
4 27.155 51.5945 -51.5945
4 29.8705 48.879 -51.5945
4 29.8705 51.5945 -54.31
4 28.5128 50.2368 -52.9522
4 28.5128 52.9522 -50.2368
4 31.2282 50.2368 -50.2368
4 31.2282 52.9522 -52.9522
4 32.586 48.879 -54.31
4 32.586 51.5945 -51.5945
4 35.3015 48.879 -51.5945
4 35.3015 51.5945 -54.31
4 33.9438 50.2368 -52.9522
4 33.9438 52.9522 -50.2368
4 36.6593 50.2368 -50.2368
4 36.6593 52.9522 -52.9522
4 38.017 48.879 -54.31
4 38.017 51.5945 -51.5945
4 40.7325 48.879 -51.5945
4 40.7325 51.5945 -54.31
4 39.3747 50.2368 -52.9522
4 39.3747 52.9522 -50.2368
4 42.0902 50.2368 -50.2368
4 42.0902 52.9522 -52.9522
4 43.448 48.879 -54.31
4 43.448 51.5945 -51.5945
4 46.1635 48.879 -51.5945
4 46.1635 51.5945 -54.31
4 44.8058 50.2368 -52.9522
4 44.8058 52.9522 -50.2368
4 47.5213 50.2368 -50.2368
4 47.5213 52.9522 -52.9522
4 48.879 48.879 -54.31
4 48.879 51.5945 -51.5945
4 51.5945 48.879 -51.5945
4 51.5945 51.5945 -54.31
4 50.2368 50.2368 -52.9522
4 50.2368 52.9522 -50.2368
4 52.9522 50.2368 -50.2368
4 52.9522 52.9522 -52.9522
4 0 0 -48.879
3 2.70705 2.75395 -44.2504
4 2.7155 2.7155 -48.879
4 1.35775 1.35775 -47.5213
3 1.26036 6.80062 -42.7628
3 4.00654 4.11282 -42.8326
4 4.07325 4.07325 -47.5213
4 5.431 0 -48.879
3 5.47215 5.52413 -44.1463
3 8.16852 2.7628 -44.2521
4 8.1465 2.7155 -48.879
4 6.78875 1.35775 -47.5213
3 6.74249 6.8738 -42.6941
3 9.42654 4.13181 -42.8322
4 9.50425 4.07325 -47.5213
4 10.862 0 -48.879
3 10.833 5.50151 -44.2278
3 13.5352 2.74681 -44.2527
4 13.5775 2.7155 -48.879
4 12.2197 1.35775 -47.5213
3 12.1618 6.82348 -42.8554
3 14.8225 4.09085 -42.7698
4 14.9352 4.07325 -47.5213
4 16.293 0 -48.879
3 16.2688 5.28584 -44.2055
1 19.0021 2.7839 -44.223
4 19.0085 2.7155 -48.879
4 17.6507 1.35775 -47.5213
1 17.6579 6.77606 -42.7936
1 20.3704 4.15624 -42.7884
4 20.3663 4.07325 -47.5213
4 21.724 0 -48.879
1 21.6801 5.46508 -44.3049
1 24.3626 2.63267 -44.2881
4 24.4395 2.7155 -48.879
4 23.0817 1.35775 -47.5213
1 23.0808 6.7518 -42.9381
1 25.6741 4.06983 -42.8918
4 25.7973 4.07325 -47.5213
4 27.155 0 -48.879
1 27.1768 5.39041 -44.2189
1 29.793 2.65324 -44.3059
4 29.8705 2.7155 -48.879
4 28.5128 1.35775 -47.5213
1 28.5322 6.70678 -42.6799
1 31.1249 3.97482 -42.7527
4 31.2282 4.07325 -47.5213
4 32.586 0 -48.879
1 32.4855 5.24679 -44.2615
1 35.2129 2.64974 -44.2693
4 35.3015 2.7155 -48.879
4 33.9438 1.35775 -47.5213
1 33.7511 6.65086 -42.9019
1 36.4903 4.01796 -42.8514
4 36.6593 4.07325 -47.5213
4 38.017 0 -48.879
1 37.8538 5.35738 -44.1754
1 40.5979 2.58679 -44.2558
4 40.7325 2.7155 -48.879
4 39.3747 1.35775 -47.5213
1 39.2588 6.62016 -42.738
1 41.9807 3.81931 -42.8669
4 42.0902 4.07325 -47.5213
4 43.448 0 -48.879
1 43.3575 5.35772 -44.1823
1 46.0583 2.66245 -44.2476
4 46.1635 2.7155 -48.879
4 44.8058 1.35775 -47.5213
1 44.7213 6.62721 -42.7543
1 47.4774 3.89969 -42.8071
4 47.5213 4.07325 -47.5213
4 48.879 0 -48.879
1 48.8263 5.37049 -44.2373
1 51.5341 2.66803 -44.1996
4 51.5945 2.7155 -48.879
4 50.2368 1.35775 -47.5213
1 50.1719 6.61367 -42.8025
1 52.8647 4.07732 -42.8437
4 52.9522 4.07325 -47.5213
4 0 5.431 -48.879
3 2.65941 8.1124 -44.2248
4 2.7155 8.1465 -48.879
4 1.35775 6.78875 -47.5213
3 1.31478 12.4601 -42.7629
3 4.01323 9.58894 -42.8303
4 4.07325 9.50425 -47.5213
4 5.431 5.431 -48.879
3 5.44213 10.9394 -44.2379
3 8.22551 8.18937 -44.0568
4 8.1465 8.1465 -48.879
4 6.78875 6.78875 -47.5213
3 6.74501 12.2517 -42.8054
3 9.55968 9.60026 -42.6955
4 9.50425 9.50425 -47.5213
4 10.862 5.431 -48.879
3 10.8832 10.8388 -44.223
3 13.7535 7.97531 -44.2873
4 13.5775 8.1465 -48.879
4 12.2197 6.78875 -47.5213
3 12.2594 12.0993 -42.831
3 14.8865 9.42593 -42.7123
4 14.9352 9.50425 -47.5213
4 16.293 5.431 -48.879
3 16.219 10.7832 -44.0006
1 19.0423 8.07061 -44.2913
4 19.0085 8.1465 -48.879
4 17.6507 6.78875 -47.5213
1 17.5855 12.167 -42.7259
1 20.3226 9.41118 -42.8053
4 20.3663 9.50425 -47.5213
4 21.724 5.431 -48.879
1 21.6666 10.844 -44.2468
1 24.4375 8.15065 -44.2552
4 24.4395 8.1465 -48.879
4 23.0817 6.78875 -47.5213
1 23.0983 11.9684 -42.7986
1 25.8808 9.37158 -42.7588
4 25.7973 9.50425 -47.5213
4 27.155 5.431 -48.879
1 27.0723 10.801 -44.3377
1 29.8056 8.10818 -44.2087
4 29.8705 8.1465 -48.879
4 28.5128 6.78875 -47.5213
1 28.4344 12.0263 -42.8227
1 31.1298 9.45091 -42.7567
4 31.2282 9.50425 -47.5213
4 32.586 5.431 -48.879
1 32.5396 10.7613 -44.2918
1 35.1448 8.06796 -44.2719
4 35.3015 8.1465 -48.879
4 33.9438 6.78875 -47.5213
1 33.888 12.1542 -42.8774
1 36.5471 9.33549 -42.8309
4 36.6593 9.50425 -47.5213
4 38.017 5.431 -48.879
1 37.8817 10.8533 -44.227
1 40.5195 8.06503 -44.2476
4 40.7325 8.1465 -48.879
4 39.3747 6.78875 -47.5213
1 39.2419 12.1006 -42.8193
1 41.8662 9.33611 -42.7909
4 42.0902 9.50425 -47.5213
4 43.448 5.431 -48.879
1 43.2468 10.7904 -44.1549
1 46.0222 8.06157 -44.2021
4 46.1635 8.1465 -48.879
4 44.8058 6.78875 -47.5213
1 44.6393 12.074 -42.7561
1 47.3904 9.33909 -42.7798
4 47.5213 9.50425 -47.5213
4 48.879 5.431 -48.879
1 48.7276 10.7915 -44.202
1 51.5023 8.07454 -44.2038
4 51.5945 8.1465 -48.879
4 50.2368 6.78875 -47.5213
1 50.0965 12.109 -42.7653
1 52.8522 9.39189 -42.679
4 52.9522 9.50425 -47.5213
4 0 10.862 -48.879
3 2.71914 13.6381 -44.2895
4 2.7155 13.5775 -48.879
4 1.35775 12.2197 -47.5213
3 1.52227 18.1025 -42.365
3 4.11377 14.9667 -42.8744
4 4.07325 14.9352 -47.5213
4 5.431 10.862 -48.879
3 5.5426 16.3328 -44.2486
3 8.18023 13.6626 -44.1884
4 8.1465 13.5775 -48.879
4 6.78875 12.2197 -47.5213
3 6.84612 17.6868 -42.833
3 9.59405 14.8852 -42.7233
4 9.50425 14.9352 -47.5213
4 10.862 10.862 -48.879
3 10.8286 16.3629 -44.182
3 13.5618 13.6078 -44.2413
4 13.5775 13.5775 -48.879
4 12.2197 12.2197 -47.5213
3 12.2189 17.756 -42.6776
3 14.8823 14.8467 -42.6763
4 14.9352 14.9352 -47.5213
4 16.293 10.862 -48.879
3 16.2052 16.1668 -44.2539
1 18.9645 13.5759 -44.2463
4 19.0085 13.5775 -48.879
4 17.6507 12.2197 -47.5213
1 17.5296 17.5409 -42.8413
1 20.288 14.8913 -42.8201
4 20.3663 14.9352 -47.5213
4 21.724 10.862 -48.879
1 21.7867 16.1932 -44.2045
1 24.4815 13.4681 -44.2469
4 24.4395 13.5775 -48.879
4 23.0817 12.2197 -47.5213
1 23.1906 17.6357 -42.709
1 25.8234 14.9245 -42.8423
4 25.7973 14.9352 -47.5213
4 27.155 10.862 -48.879
1 27.0798 16.3633 -44.2914
1 29.8002 13.4393 -44.1752
4 29.8705 13.5775 -48.879
4 28.5128 12.2197 -47.5213
1 28.4076 17.5837 -42.7631
1 31.1632 14.8586 -42.7794
4 31.2282 14.9352 -47.5213
4 32.586 10.862 -48.879
1 32.5663 16.2304 -44.2724
1 35.3611 13.5688 -44.3388
4 35.3015 13.5775 -48.879
4 33.9438 12.2197 -47.5213
1 33.8302 17.5656 -42.8381
1 36.5791 14.8968 -42.8467
4 36.6593 14.9352 -47.5213
4 38.017 10.862 -48.879
1 37.9537 16.2762 -44.1703
1 40.6343 13.4458 -44.2405
4 40.7325 13.5775 -48.879
4 39.3747 12.2197 -47.5213
1 39.2753 17.6091 -42.7295
1 41.9611 14.8935 -42.7846
4 42.0902 14.9352 -47.5213
4 43.448 10.862 -48.879
1 43.3461 16.2071 -44.2204
1 46.0593 13.3993 -44.2342
4 46.1635 13.5775 -48.879
4 44.8058 12.2197 -47.5213
1 44.7217 17.5409 -42.868
1 47.4022 14.7355 -42.8142
4 47.5213 14.9352 -47.5213
4 48.879 10.862 -48.879
1 48.6967 16.1221 -44.298
1 51.5211 13.4313 -44.1528
4 51.5945 13.5775 -48.879
4 50.2368 12.2197 -47.5213
1 50.0568 17.4647 -42.8054
1 52.7584 14.6096 -42.515
4 52.9522 14.9352 -47.5213
4 0 16.293 -48.879
3 2.6105 19.0304 -44.2768
4 2.7155 19.0085 -48.879
4 1.35775 17.6507 -47.5213
3 1.36931 22.1559 -43.6737
3 4.09706 20.2501 -42.9145
4 4.07325 20.3663 -47.5213
4 5.431 16.293 -48.879
3 5.43186 21.6625 -44.1917
3 8.20324 19.017 -44.3231
4 8.1465 19.0085 -48.879
4 6.78875 17.6507 -47.5213
3 6.70405 23.0131 -42.8124
3 9.55502 20.3715 -42.7974
4 9.50425 20.3663 -47.5213
4 10.862 16.293 -48.879
3 10.8798 21.7837 -44.3461
3 13.5009 19.0793 -44.2033
4 13.5775 19.0085 -48.879
4 12.2197 17.6507 -47.5213
3 12.1366 23.0501 -42.8162
3 14.9135 20.3678 -42.7855
4 14.9352 20.3663 -47.5213
4 16.293 16.293 -48.879
3 16.3186 21.6866 -44.262
1 18.9179 18.9275 -44.2288
4 19.0085 19.0085 -48.879
4 17.6507 17.6507 -47.5213
1 17.6654 23.0817 -42.8166
1 20.406 20.3035 -42.7978
4 20.3663 20.3663 -47.5213
4 21.724 16.293 -48.879
1 21.7124 21.7546 -44.2298
1 24.4375 19.0367 -44.1802
4 24.4395 19.0085 -48.879
4 23.0817 17.6507 -47.5213
1 23.0064 23.1718 -42.8243
1 25.761 20.3918 -42.7501
4 25.7973 20.3663 -47.5213
4 27.155 16.293 -48.879
1 27.2107 21.6456 -44.2199
1 29.7101 18.8788 -44.1951
4 29.8705 19.0085 -48.879
4 28.5128 17.6507 -47.5213
1 28.5352 22.9586 -42.7264
1 31.0446 20.2453 -42.7161
4 31.2282 20.3663 -47.5213
4 32.586 16.293 -48.879
1 32.4664 21.527 -44.2475
1 35.2342 18.943 -44.3302
4 35.3015 19.0085 -48.879
4 33.9438 17.6507 -47.5213
1 33.7496 22.9283 -42.7519
1 36.5342 20.2055 -42.8115
4 36.6593 20.3663 -47.5213
4 38.017 16.293 -48.879
1 37.9474 21.5301 -44.2412
1 40.6642 18.9928 -44.3145
4 40.7325 19.0085 -48.879
4 39.3747 17.6507 -47.5213
1 39.2216 22.9329 -42.7258
1 42.0235 20.2131 -42.7788
4 42.0902 20.3663 -47.5213
4 43.448 16.293 -48.879
1 43.3664 21.653 -44.2357
1 46.061 18.958 -44.3008
4 46.1635 19.0085 -48.879
4 44.8058 17.6507 -47.5213
1 44.7914 22.9778 -42.8673
1 47.4594 20.2662 -42.8635
4 47.5213 20.3663 -47.5213
4 48.879 16.293 -48.879
1 48.8406 21.6027 -44.2769
1 51.5189 18.8886 -44.2368
4 51.5945 19.0085 -48.879
4 50.2368 17.6507 -47.5213
1 50.1189 22.8152 -42.6185
1 52.7659 20.0798 -42.6924
4 52.9522 20.3663 -47.5213
4 0 21.724 -48.879
3 2.5593 24.2068 -44.2855
4 2.7155 24.4395 -48.879
4 1.35775 23.0817 -47.5213
3 1.20929 28.2008 -43.0349
3 3.91789 25.7067 -42.8576
4 4.07325 25.7973 -47.5213
4 5.431 21.724 -48.879
3 5.33138 27.1081 -44.2825
3 8.02432 24.4044 -44.1551
4 8.1465 24.4395 -48.879
4 6.78875 23.0817 -47.5213
3 6.68129 28.5324 -42.8794
3 9.4982 25.7839 -42.8367
4 9.50425 25.7973 -47.5213
4 10.862 21.724 -48.879
3 10.8461 27.2422 -44.1669
3 13.5098 24.4038 -44.2149
4 13.5775 24.4395 -48.879
4 12.2197 23.0817 -47.5213
3 12.1632 28.4386 -42.6424
3 14.964 25.7868 -42.81
4 14.9352 25.7973 -47.5213
4 16.293 21.724 -48.879
3 16.1758 27.1785 -44.2264
1 18.9808 24.4612 -44.2838
4 19.0085 24.4395 -48.879
4 17.6507 23.0817 -47.5213
1 17.5658 28.4805 -42.9271
1 20.337 25.7751 -42.9502
4 20.3663 25.7973 -47.5213
4 21.724 21.724 -48.879
1 21.6835 27.1942 -44.2537
1 24.4145 24.4375 -44.2857
4 24.4395 24.4395 -48.879
4 23.0817 23.0817 -47.5213
1 23.0241 28.4665 -42.853
1 25.7811 25.6151 -42.8284
4 25.7973 25.7973 -47.5213
4 27.155 21.724 -48.879
1 27.0753 27.1008 -44.2863
1 29.6992 24.4381 -44.2966
4 29.8705 24.4395 -48.879
4 28.5128 23.0817 -47.5213
1 28.4201 28.4434 -42.8438
1 31.1698 25.7397 -42.8905
4 31.2282 25.7973 -47.5213
4 32.586 21.724 -48.879