14938
 Atoms. Timestep: 100000
4 0 0 -54.31
4 0 2.7155 -51.5945
4 2.7155 0 -51.5945
4 2.7155 2.7155 -54.31
4 1.35775 1.35775 -52.9522
4 1.35775 4.07325 -50.2368
4 4.07325 1.35775 -50.2368
4 4.07325 4.07325 -52.9522
4 5.431 0 -54.31
4 5.431 2.7155 -51.5945
4 8.1465 0 -51.5945
4 8.1465 2.7155 -54.31
4 6.78875 1.35775 -52.9522
4 6.78875 4.07325 -50.2368
4 9.50425 1.35775 -50.2368
4 9.50425 4.07325 -52.9522
4 10.862 0 -54.31
4 10.862 2.7155 -51.5945
4 13.5775 0 -51.5945
4 13.5775 2.7155 -54.31
4 12.2197 1.35775 -52.9522
4 12.2197 4.07325 -50.2368
4 14.9352 1.35775 -50.2368
4 14.9352 4.07325 -52.9522
4 16.293 0 -54.31
4 16.293 2.7155 -51.5945
4 19.0085 0 -51.5945
4 19.0085 2.7155 -54.31
4 17.6507 1.35775 -52.9522
4 17.6507 4.07325 -50.2368
4 20.3663 1.35775 -50.2368
4 20.3663 4.07325 -52.9522
4 21.724 0 -54.31
4 21.724 2.7155 -51.5945
4 24.4395 0 -51.5945
4 24.4395 2.7155 -54.31
4 23.0817 1.35775 -52.9522
4 23.0817 4.07325 -50.2368
4 25.7973 1.35775 -50.2368
4 25.7973 4.07325 -52.9522
4 27.155 0 -54.31
4 27.155 2.7155 -51.5945
4 29.8705 0 -51.5945
4 29.8705 2.7155 -54.31
4 28.5128 1.35775 -52.9522
4 28.5128 4.07325 -50.2368
4 31.2282 1.35775 -50.2368
4 31.2282 4.07325 -52.9522
4 32.586 0 -54.31
4 32.586 2.7155 -51.5945
4 35.3015 0 -51.5945
4 35.3015 2.7155 -54.31
4 33.9438 1.35775 -52.9522
4 33.9438 4.07325 -50.2368
4 36.6593 1.35775 -50.2368
4 36.6593 4.07325 -52.9522
4 38.017 0 -54.31
4 38.017 2.7155 -51.5945
4 40.7325 0 -51.5945
4 40.7325 2.7155 -54.31
4 39.3747 1.35775 -52.9522
4 39.3747 4.07325 -50.2368
4 42.0902 1.35775 -50.2368
4 42.0902 4.07325 -52.9522
4 43.448 0 -54.31
4 43.448 2.7155 -51.5945
4 46.1635 0 -51.5945
4 46.1635 2.7155 -54.31
4 44.8058 1.35775 -52.9522
4 44.8058 4.07325 -50.2368
4 47.5213 1.35775 -50.2368
4 47.5213 4.07325 -52.9522
4 48.879 0 -54.31
4 48.879 2.7155 -51.5945
4 51.5945 0 -51.5945
4 51.5945 2.7155 -54.31
4 50.2368 1.35775 -52.9522
4 50.2368 4.07325 -50.2368
4 52.9522 1.35775 -50.2368
4 52.9522 4.07325 -52.9522
4 0 5.431 -54.31
4 0 8.1465 -51.5945
4 2.7155 5.431 -51.5945
4 2.7155 8.1465 -54.31
4 1.35775 6.78875 -52.9522
4 1.35775 9.50425 -50.2368
4 4.07325 6.78875 -50.2368
4 4.07325 9.50425 -52.9522
4 5.431 5.431 -54.31
4 5.431 8.1465 -51.5945
4 8.1465 5.431 -51.5945
4 8.1465 8.1465 -54.31
4 6.78875 6.78875 -52.9522
4 6.78875 9.50425 -50.2368
4 9.50425 6.78875 -50.2368
4 9.50425 9.50425 -52.9522
4 10.862 5.431 -54.31
4 10.862 8.1465 -51.5945
4 13.5775 5.431 -51.5945
4 13.5775 8.1465 -54.31
4 12.2197 6.78875 -52.9522
4 12.2197 9.50425 -50.2368
4 14.9352 6.78875 -50.2368
4 14.9352 9.50425 -52.9522
4 16.293 5.431 -54.31
4 16.293 8.1465 -51.5945
4 19.0085 5.431 -51.5945
4 19.0085 8.1465 -54.31
4 17.6507 6.78875 -52.9522
4 17.6507 9.50425 -50.2368
4 20.3663 6.78875 -50.2368
4 20.3663 9.50425 -52.9522
4 21.724 5.431 -54.31
4 21.724 8.1465 -51.5945
4 24.4395 5.431 -51.5945
4 24.4395 8.1465 -54.31
4 23.0817 6.78875 -52.9522
4 23.0817 9.50425 -50.2368
4 25.7973 6.78875 -50.2368
4 25.7973 9.50425 -52.9522
4 27.155 5.431 -54.31
4 27.155 8.1465 -51.5945
4 29.8705 5.431 -51.5945
4 29.8705 8.1465 -54.31
4 28.5128 6.78875 -52.9522
4 28.5128 9.50425 -50.2368
4 31.2282 6.78875 -50.2368
4 31.2282 9.50425 -52.9522
4 32.586 5.431 -54.31
4 32.586 8.1465 -51.5945
4 35.3015 5.431 -51.5945
4 35.3015 8.1465 -54.31
4 33.9438 6.78875 -52.9522
4 33.9438 9.50425 -50.2368
4 36.6593 6.78875 -50.2368
4 36.6593 9.50425 -52.9522
4 38.017 5.431 -54.31
4 38.017 8.1465 -51.5945
4 40.7325 5.431 -51.5945
4 40.7325 8.1465 -54.31
4 39.3747 6.78875 -52.9522
4 39.3747 9.50425 -50.2368
4 42.0902 6.78875 -50.2368
4 42.0902 9.50425 -52.9522
4 43.448 5.431 -54.31
4 43.448 8.1465 -51.5945
4 46.1635 5.431 -51.5945
4 46.1635 8.1465 -54.31
4 44.8058 6.78875 -52.9522
4 44.8058 9.50425 -50.2368
4 47.5213 6.78875 -50.2368
4 47.5213 9.50425 -52.9522
4 48.879 5.431 -54.31
4 48.879 8.1465 -51.5945
4 51.5945 5.431 -51.5945
4 51.5945 8.1465 -54.31
4 50.2368 6.78875 -52.9522
4 50.2368 9.50425 -50.2368
4 52.9522 6.78875 -50.2368
4 52.9522 9.50425 -52.9522
4 0 10.862 -54.31
4 0 13.5775 -51.5945
4 2.7155 10.862 -51.5945
4 2.7155 13.5775 -54.31
4 1.35775 12.2197 -52.9522
4 1.35775 14.9352 -50.2368
4 4.07325 12.2197 -50.2368
4 4.07325 14.9352 -52.9522
4 5.431 10.862 -54.31
4 5.431 13.5775 -51.5945
4 8.1465 10.862 -51.5945
4 8.1465 13.5775 -54.31
4 6.78875 12.2197 -52.9522
4 6.78875 14.9352 -50.2368
4 9.50425 12.2197 -50.2368
4 9.50425 14.9352 -52.9522
4 10.862 10.862 -54.31
4 10.862 13.5775 -51.5945
4 13.5775 10.862 -51.5945
4 13.5775 13.5775 -54.31
4 12.2197 12.2197 -52.9522
4 12.2197 14.9352 -50.2368
4 14.9352 12.2197 -50.2368
4 14.9352 14.9352 -52.9522
4 16.293 10.862 -54.31
4 16.293 13.5775 -51.5945
4 19.0085 10.862 -51.5945
4 19.0085 13.5775 -54.31
4 17.6507 12.2197 -52.9522
4 17.6507 14.9352 -50.2368
4 20.3663 12.2197 -50.2368
4 20.3663 14.9352 -52.9522
4 21.724 10.862 -54.31
4 21.724 13.5775 -51.5945
4 24.4395 10.862 -51.5945
4 24.4395 13.5775 -54.31
4 23.0817 12.2197 -52.9522
4 23.0817 14.9352 -50.2368
4 25.7973 12.2197 -50.2368
4 25.7973 14.9352 -52.9522
4 27.155 10.862 -54.31
4 27.155 13.5775 -51.5945
4 29.8705 10.862 -51.5945
4 29.8705 13.5775 -54.31
4 28.5128 12.2197 -52.9522
4 28.5128 14.9352 -50.2368
4 31.2282 12.2197 -50.2368
4 31.2282 14.9352 -52.9522
4 32.586 10.862 -54.31
4 32.586 13.5775 -51.5945
4 35.3015 10.862 -51.5945
4 35.3015 13.5775 -54.31
4 33.9438 12.2197 -52.9522
4 33.9438 14.9352 -50.2368
4 36.6593 12.2197 -50.2368
4 36.6593 14.9352 -52.9522
4 38.017 10.862 -54.31
4 38.017 13.5775 -51.5945
4 40.7325 10.862 -51.5945
4 40.7325 13.5775 -54.31
4 39.3747 12.2197 -52.9522
4 39.3747 14.9352 -50.2368
4 42.0902 12.2197 -50.2368
4 42.0902 14.9352 -52.9522
4 43.448 10.862 -54.31
4 43.448 13.5775 -51.5945
4 46.1635 10.862 -51.5945
4 46.1635 13.5775 -54.31
4 44.8058 12.2197 -52.9522
4 44.8058 14.9352 -50.2368
4 47.5213 12.2197 -50.2368
4 47.5213 14.9352 -52.9522
4 48.879 10.862 -54.31
4 48.879 13.5775 -51.5945
4 51.5945 10.862 -51.5945
4 51.5945 13.5775 -54.31
4 50.2368 12.2197 -52.9522
4 50.2368 14.9352 -50.2368
4 52.9522 12.2197 -50.2368
4 52.9522 14.9352 -52.9522
4 0 16.293 -54.31
4 0 19.0085 -51.5945
4 2.7155 16.293 -51.5945
4 2.7155 19.0085 -54.31
4 1.35775 17.6507 -52.9522
4 1.35775 20.3663 -50.2368
4 4.07325 17.6507 -50.2368
4 4.07325 20.3663 -52.9522
4 5.431 16.293 -54.31
4 5.431 19.0085 -51.5945
4 8.1465 16.293 -51.5945
4 8.1465 19.0085 -54.31
4 6.78875 17.6507 -52.9522
4 6.78875 20.3663 -50.2368
4 9.50425 17.6507 -50.2368
4 9.50425 20.3663 -52.9522
4 10.862 16.293 -54.31
4 10.862 19.0085 -51.5945
4 13.5775 16.293 -51.5945
4 13.5775 19.0085 -54.31
4 12.2197 17.6507 -52.9522
4 12.2197 20.3663 -50.2368
4 14.9352 17.6507 -50.2368
4 14.9352 20.3663 -52.9522
4 16.293 16.293 -54.31
4 16.293 19.0085 -51.5945
4 19.0085 16.293 -51.5945
4 19.0085 19.0085 -54.31
4 17.6507 17.6507 -52.9522
4 17.6507 20.3663 -50.2368
4 20.3663 17.6507 -50.2368
4 20.3663 20.3663 -52.9522
4 21.724 16.293 -54.31
4 21.724 19.0085 -51.5945
4 24.4395 16.293 -51.5945
4 24.4395 19.0085 -54.31
4 23.0817 17.6507 -52.9522
4 23.0817 20.3663 -50.2368
4 25.7973 17.6507 -50.2368
4 25.7973 20.3663 -52.9522
4 27.155 16.293 -54.31
4 27.155 19.0085 -51.5945
4 29.8705 16.293 -51.5945
4 29.8705 19.0085 -54.31
4 28.5128 17.6507 -52.9522
4 28.5128 20.3663 -50.2368
4 31.2282 17.6507 -50.2368
4 31.2282 20.3663 -52.9522
4 32.586 16.293 -54.31
4 32.586 19.0085 -51.5945
4 35.3015 16.293 -51.5945
4 35.3015 19.0085 -54.31
4 33.9438 17.6507 -52.9522
4 33.9438 20.3663 -50.2368
4 36.6593 17.6507 -50.2368
4 36.6593 20.3663 -52.9522
4 38.017 16.293 -54.31
4 38.017 19.0085 -51.5945
4 40.7325 16.293 -51.5945
4 40.7325 19.0085 -54.31
4 39.3747 17.6507 -52.9522
4 39.3747 20.3663 -50.2368
4 42.0902 17.6507 -50.2368
4 42.0902 20.3663 -52.9522
4 43.448 16.293 -54.31
4 43.448 19.0085 -51.5945
4 46.1635 16.293 -51.5945
4 46.1635 19.0085 -54.31
4 44.8058 17.6507 -52.9522
4 44.8058 20.3663 -50.2368
4 47.5213 17.6507 -50.2368
4 47.5213 20.3663 -52.9522
4 48.879 16.293 -54.31
4 48.879 19.0085 -51.5945
4 51.5945 16.293 -51.5945
4 51.5945 19.0085 -54.31
4 50.2368 17.6507 -52.9522
4 50.2368 20.3663 -50.2368
4 52.9522 17.6507 -50.2368
4 52.9522 20.3663 -52.9522
4 0 21.724 -54.31
4 0 24.4395 -51.5945
4 2.7155 21.724 -51.5945
4 2.7155 24.4395 -54.31
4 1.35775 23.0817 -52.9522
4 1.35775 25.7973 -50.2368
4 4.07325 23.0817 -50.2368
4 4.07325 25.7973 -52.9522
4 5.431 21.724 -54.31
4 5.431 24.4395 -51.5945
4 8.1465 21.724 -51.5945
4 8.1465 24.4395 -54.31
4 6.78875 23.0817 -52.9522
4 6.78875 25.7973 -50.2368
4 9.50425 23.0817 -50.2368
4 9.50425 25.7973 -52.9522
4 10.862 21.724 -54.31
4 10.862 24.4395 -51.5945
4 13.5775 21.724 -51.5945
4 13.5775 24.4395 -54.31
4 12.2197 23.0817 -52.9522
4 12.2197 25.7973 -50.2368
4 14.9352 23.0817 -50.2368
4 14.9352 25.7973 -52.9522
4 16.293 21.724 -54.31
4 16.293 24.4395 -51.5945
4 19.0085 21.724 -51.5945
4 19.0085 24.4395 -54.31
4 17.6507 23.0817 -52.9522
4 17.6507 25.7973 -50.2368
4 20.3663 23.0817 -50.2368
4 20.3663 25.7973 -52.9522
4 21.724 21.724 -54.31
4 21.724 24.4395 -51.5945
4 24.4395 21.724 -51.5945
4 24.4395 24.4395 -54.31
4 23.0817 23.0817 -52.9522
4 23.0817 25.7973 -50.2368
4 25.7973 23.0817 -50.2368
4 25.7973 25.7973 -52.9522
4 27.155 21.724 -54.31
4 27.155 24.4395 -51.5945
4 29.8705 21.724 -51.5945
4 29.8705 24.4395 -54.31
4 28.5128 23.0817 -52.9522
4 28.5128 25.7973 -50.2368
4 31.2282 23.0817 -50.2368
4 31.2282 25.7973 -52.9522
4 32.586 21.724 -54.31
4 32.586 24.4395 -51.5945
4 35.3015 21.724 -51.5945
4 35.3015 24.4395 -54.31
4 33.9438 23.0817 -52.9522
4 33.9438 25.7973 -50.2368
4 36.6593 23.0817 -50.2368
4 36.6593 25.7973 -52.9522
4 38.017 21.724 -54.31
4 38.017 24.4395 -51.5945
4 40.7325 21.724 -51.5945
4 40.7325 24.4395 -54.31
4 39.3747 23.0817 -52.9522
4 39.3747 25.7973 -50.2368
4 42.0902 23.0817 -50.2368
4 42.0902 25.7973 -52.9522
4 43.448 21.724 -54.31
4 43.448 24.4395 -51.5945
4 46.1635 21.724 -51.5945
4 46.1635 24.4395 -54.31
4 44.8058 23.0817 -52.9522
4 44.8058 25.7973 -50.2368
4 47.5213 23.0817 -50.2368
4 47.5213 25.7973 -52.9522
4 48.879 21.724 -54.31
4 48.879 24.4395 -51.5945
4 51.5945 21.724 -51.5945
4 51.5945 24.4395 -54.31
4 50.2368 23.0817 -52.9522
4 50.2368 25.7973 -50.2368
4 52.9522 23.0817 -50.2368
4 52.9522 25.7973 -52.9522
4 0 27.155 -54.31
4 0 29.8705 -51.5945
4 2.7155 27.155 -51.5945
4 2.7155 29.8705 -54.31
4 1.35775 28.5128 -52.9522
4 1.35775 31.2282 -50.2368
4 4.07325 28.5128 -50.2368
4 4.07325 31.2282 -52.9522
4 5.431 27.155 -54.31
4 5.431 29.8705 -51.5945
4 8.1465 27.155 -51.5945
4 8.1465 29.8705 -54.31
4 6.78875 28.5128 -52.9522
4 6.78875 31.2282 -50.2368
4 9.50425 28.5128 -50.2368
4 9.50425 31.2282 -52.9522
4 10.862 27.155 -54.31
4 10.862 29.8705 -51.5945
4 13.5775 27.155 -51.5945
4 13.5775 29.8705 -54.31
4 12.2197 28.5128 -52.9522
4 12.2197 31.2282 -50.2368
4 14.9352 28.5128 -50.2368
4 14.9352 31.2282 -52.9522
4 16.293 27.155 -54.31
4 16.293 29.8705 -51.5945
4 19.0085 27.155 -51.5945
4 19.0085 29.8705 -54.31
4 17.6507 28.5128 -52.9522
4 17.6507 31.2282 -50.2368
4 20.3663 28.5128 -50.2368
4 20.3663 31.2282 -52.9522
4 21.724 27.155 -54.31
4 21.724 29.8705 -51.5945
4 24.4395 27.155 -51.5945
4 24.4395 29.8705 -54.31
4 23.0817 28.5128 -52.9522
4 23.0817 31.2282 -50.2368
4 25.7973 28.5128 -50.2368
4 25.7973 31.2282 -52.9522
4 27.155 27.155 -54.31
4 27.155 29.8705 -51.5945
4 29.8705 27.155 -51.5945
4 29.8705 29.8705 -54.31
4 28.5128 28.5128 -52.9522
4 28.5128 31.2282 -50.2368
4 31.2282 28.5128 -50.2368
4 31.2282 31.2282 -52.9522
4 32.586 27.155 -54.31
4 32.586 29.8705 -51.5945
4 35.3015 27.155 -51.5945
4 35.3015 29.8705 -54.31
4 33.9438 28.5128 -52.9522
4 33.9438 31.2282 -50.2368
4 36.6593 28.5128 -50.2368
4 36.6593 31.2282 -52.9522
4 38.017 27.155 -54.31
4 38.017 29.8705 -51.5945
4 40.7325 27.155 -51.5945
4 40.7325 29.8705 -54.31
4 39.3747 28.5128 -52.9522
4 39.3747 31.2282 -50.2368
4 42.0902 28.5128 -50.2368
4 42.0902 31.2282 -52.9522
4 43.448 27.155 -54.31
4 43.448 29.8705 -51.5945
4 46.1635 27.155 -51.5945
4 46.1635 29.8705 -54.31
4 44.8058 28.5128 -52.9522
4 44.8058 31.2282 -50.2368
4 47.5213 28.5128 -50.2368
4 47.5213 31.2282 -52.9522
4 48.879 27.155 -54.31
4 48.879 29.8705 -51.5945
4 51.5945 27.155 -51.5945
4 51.5945 29.8705 -54.31
4 50.2368 28.5128 -52.9522
4 50.2368 31.2282 -50.2368
4 52.9522 28.5128 -50.2368
4 52.9522 31.2282 -52.9522
4 0 32.586 -54.31
4 0 35.3015 -51.5945
4 2.7155 32.586 -51.5945
4 2.7155 35.3015 -54.31
4 1.35775 33.9438 -52.9522
4 1.35775 36.6593 -50.2368
4 4.07325 33.9438 -50.2368
4 4.07325 36.6593 -52.9522
4 5.431 32.586 -54.31
4 5.431 35.3015 -51.5945
4 8.1465 32.586 -51.5945
4 8.1465 35.3015 -54.31
4 6.78875 33.9438 -52.9522
4 6.78875 36.6593 -50.2368
4 9.50425 33.9438 -50.2368
4 9.50425 36.6593 -52.9522
4 10.862 32.586 -54.31
4 10.862 35.3015 -51.5945
4 13.5775 32.586 -51.5945
4 13.5775 35.3015 -54.31
4 12.2197 33.9438 -52.9522
4 12.2197 36.6593 -50.2368
4 14.9352 33.9438 -50.2368
4 14.9352 36.6593 -52.9522
4 16.293 32.586 -54.31
4 16.293 35.3015 -51.5945
4 19.0085 32.586 -51.5945
4 19.0085 35.3015 -54.31
4 17.6507 33.9438 -52.9522
4 17.6507 36.6593 -50.2368
4 20.3663 33.9438 -50.2368
4 20.3663 36.6593 -52.9522
4 21.724 32.586 -54.31
4 21.724 35.3015 -51.5945
4 24.4395 32.586 -51.5945
4 24.4395 35.3015 -54.31
4 23.0817 33.9438 -52.9522
4 23.0817 36.6593 -50.2368
4 25.7973 33.9438 -50.2368
4 25.7973 36.6593 -52.9522
4 27.155 32.586 -54.31
4 27.155 35.3015 -51.5945
4 29.8705 32.586 -51.5945
4 29.8705 35.3015 -54.31
4 28.5128 33.9438 -52.9522
4 28.5128 36.6593 -50.2368
4 31.2282 33.9438 -50.2368
4 31.2282 36.6593 -52.9522
4 32.586 32.586 -54.31
4 32.586 35.3015 -51.5945
4 35.3015 32.586 -51.5945
4 35.3015 35.3015 -54.31
4 33.9438 33.9438 -52.9522
4 33.9438 36.6593 -50.2368
4 36.6593 33.9438 -50.2368
4 36.6593 36.6593 -52.9522
4 38.017 32.586 -54.31
4 38.017 35.3015 -51.5945
4 40.7325 32.586 -51.5945
4 40.7325 35.3015 -54.31
4 39.3747 33.9438 -52.9522
4 39.3747 36.6593 -50.2368
4 42.0902 33.9438 -50.2368
4 42.0902 36.6593 -52.9522
4 43.448 32.586 -54.31
4 43.448 35.3015 -51.5945
4 46.1635 32.586 -51.5945
4 46.1635 35.3015 -54.31
4 44.8058 33.9438 -52.9522
4 44.8058 36.6593 -50.2368
4 47.5213 33.9438 -50.2368
4 47.5213 36.6593 -52.9522
4 48.879 32.586 -54.31
4 48.879 35.3015 -51.5945
4 51.5945 32.586 -51.5945
4 51.5945 35.3015 -54.31
4 50.2368 33.9438 -52.9522
4 50.2368 36.6593 -50.2368
4 52.9522 33.9438 -50.2368
4 52.9522 36.6593 -52.9522
4 0 38.017 -54.31
4 0 40.7325 -51.5945
4 2.7155 38.017 -51.5945
4 2.7155 40.7325 -54.31
4 1.35775 39.3747 -52.9522
4 1.35775 42.0902 -50.2368
4 4.07325 39.3747 -50.2368
4 4.07325 42.0902 -52.9522
4 5.431 38.017 -54.31
4 5.431 40.7325 -51.5945
4 8.1465 38.017 -51.5945
4 8.1465 40.7325 -54.31
4 6.78875 39.3747 -52.9522
4 6.78875 42.0902 -50.2368
4 9.50425 39.3747 -50.2368
4 9.50425 42.0902 -52.9522
4 10.862 38.017 -54.31
4 10.862 40.7325 -51.5945
4 13.5775 38.017 -51.5945
4 13.5775 40.7325 -54.31
4 12.2197 39.3747 -52.9522
4 12.2197 42.0902 -50.2368
4 14.9352 39.3747 -50.2368
4 14.9352 42.0902 -52.9522
4 16.293 38.017 -54.31
4 16.293 40.7325 -51.5945
4 19.0085 38.017 -51.5945
4 19.0085 40.7325 -54.31
4 17.6507 39.3747 -52.9522
4 17.6507 42.0902 -50.2368
4 20.3663 39.3747 -50.2368
4 20.3663 42.0902 -52.9522
4 21.724 38.017 -54.31
4 21.724 40.7325 -51.5945
4 24.4395 38.017 -51.5945
4 24.4395 40.7325 -54.31
4 23.0817 39.3747 -52.9522
4 23.0817 42.0902 -50.2368
4 25.7973 39.3747 -50.2368
4 25.7973 42.0902 -52.9522
4 27.155 38.017 -54.31
4 27.155 40.7325 -51.5945
4 29.8705 38.017 -51.5945
4 29.8705 40.7325 -54.31
4 28.5128 39.3747 -52.9522
4 28.5128 42.0902 -50.2368
4 31.2282 39.3747 -50.2368
4 31.2282 42.0902 -52.9522
4 32.586 38.017 -54.31
4 32.586 40.7325 -51.5945
4 35.3015 38.017 -51.5945
4 35.3015 40.7325 -54.31
4 33.9438 39.3747 -52.9522
4 33.9438 42.0902 -50.2368
4 36.6593 39.3747 -50.2368
4 36.6593 42.0902 -52.9522
4 38.017 38.017 -54.31
4 38.017 40.7325 -51.5945
4 40.7325 38.017 -51.5945
4 40.7325 40.7325 -54.31
4 39.3747 39.3747 -52.9522
4 39.3747 42.0902 -50.2368
4 42.0902 39.3747 -50.2368
4 42.0902 42.0902 -52.9522
4 43.448 38.017 -54.31
4 43.448 40.7325 -51.5945
4 46.1635 38.017 -51.5945
4 46.1635 40.7325 -54.31
4 44.8058 39.3747 -52.9522
4 44.8058 42.0902 -50.2368
4 47.5213 39.3747 -50.2368
4 47.5213 42.0902 -52.9522
4 48.879 38.017 -54.31
4 48.879 40.7325 -51.5945
4 51.5945 38.017 -51.5945
4 51.5945 40.7325 -54.31
4 50.2368 39.3747 -52.9522
4 50.2368 42.0902 -50.2368
4 52.9522 39.3747 -50.2368
4 52.9522 42.0902 -52.9522
4 0 43.448 -54.31
4 0 46.1635 -51.5945
4 2.7155 43.448 -51.5945
4 2.7155 46.1635 -54.31
4 1.35775 44.8058 -52.9522
4 1.35775 47.5213 -50.2368
4 4.07325 44.8058 -50.2368
4 4.07325 47.5213 -52.9522
4 5.431 43.448 -54.31
4 5.431 46.1635 -51.5945
4 8.1465 43.448 -51.5945
4 8.1465 46.1635 -54.31
4 6.78875 44.8058 -52.9522
4 6.78875 47.5213 -50.2368
4 9.50425 44.8058 -50.2368
4 9.50425 47.5213 -52.9522
4 10.862 43.448 -54.31
4 10.862 46.1635 -51.5945
4 13.5775 43.448 -51.5945
4 13.5775 46.1635 -54.31
4 12.2197 44.8058 -52.9522
4 12.2197 47.5213 -50.2368
4 14.9352 44.8058 -50.2368
4 14.9352 47.5213 -52.9522
4 16.293 43.448 -54.31
4 16.293 46.1635 -51.5945
4 19.0085 43.448 -51.5945
4 19.0085 46.1635 -54.31
4 17.6507 44.8058 -52.9522
4 17.6507 47.5213 -50.2368
4 20.3663 44.8058 -50.2368
4 20.3663 47.5213 -52.9522
4 21.724 43.448 -54.31
4 21.724 46.1635 -51.5945
4 24.4395 43.448 -51.5945
4 24.4395 46.1635 -54.31
4 23.0817 44.8058 -52.9522
4 23.0817 47.5213 -50.2368
4 25.7973 44.8058 -50.2368
4 25.7973 47.5213 -52.9522
4 27.155 43.448 -54.31
4 27.155 46.1635 -51.5945
4 29.8705 43.448 -51.5945
4 29.8705 46.1635 -54.31
4 28.5128 44.8058 -52.9522
4 28.5128 47.5213 -50.2368
4 31.2282 44.8058 -50.2368
4 31.2282 47.5213 -52.9522
4 32.586 43.448 -54.31
4 32.586 46.1635 -51.5945
4 35.3015 43.448 -51.5945
4 35.3015 46.1635 -54.31
4 33.9438 44.8058 -52.9522
4 33.9438 47.5213 -50.2368
4 36.6593 44.8058 -50.2368
4 36.6593 47.5213 -52.9522
4 38.017 43.448 -54.31
4 38.017 46.1635 -51.5945
4 40.7325 43.448 -51.5945
4 40.7325 46.1635 -54.31
4 39.3747 44.8058 -52.9522
4 39.3747 47.5213 -50.2368
4 42.0902 44.8058 -50.2368
4 42.0902 47.5213 -52.9522
4 43.448 43.448 -54.31
4 43.448 46.1635 -51.5945
4 46.1635 43.448 -51.5945
4 46.1635 46.1635 -54.31
4 44.8058 44.8058 -52.9522
4 44.8058 47.5213 -50.2368
4 47.5213 44.8058 -50.2368
4 47.5213 47.5213 -52.9522
4 48.879 43.448 -54.31
4 48.879 46.1635 -51.5945
4 51.5945 43.448 -51.5945
4 51.5945 46.1635 -54.31
4 50.2368 44.8058 -52.9522
4 50.2368 47.5213 -50.2368
4 52.9522 44.8058 -50.2368
4 52.9522 47.5213 -52.9522
4 0 48.879 -54.31
4 0 51.5945 -51.5945
4 2.7155 48.879 -51.5945
4 2.7155 51.5945 -54.31
4 1.35775 50.2368 -52.9522
4 1.35775 52.9522 -50.2368
4 4.07325 50.2368 -50.2368
4 4.07325 52.9522 -52.9522
4 5.431 48.879 -54.31
4 5.431 51.5945 -51.5945
4 8.1465 48.879 -51.5945
4 8.1465 51.5945 -54.31
4 6.78875 50.2368 -52.9522
4 6.78875 52.9522 -50.2368
4 9.50425 50.2368 -50.2368
4 9.50425 52.9522 -52.9522
4 10.862 48.879 -54.31
4 10.862 51.5945 -51.5945
4 13.5775 48.879 -51.5945
4 13.5775 51.5945 -54.31
4 12.2197 50.2368 -52.9522
4 12.2197 52.9522 -50.2368
4 14.9352 50.2368 -50.2368
4 14.9352 52.9522 -52.9522
4 16.293 48.879 -54.31
4 16.293 51.5945 -51.5945
4 19.0085 48.879 -51.5945
4 19.0085 51.5945 -54.31
4 17.6507 50.2368 -52.9522
4 17.6507 52.9522 -50.2368
4 20.3663 50.2368 -50.2368
4 20.3663 52.9522 -52.9522
4 21.724 48.879 -54.31
4 21.724 51.5945 -51.5945
4 24.4395 48.879 -51.5945
4 24.4395 51.5945 -54.31
4 23.0817 50.2368 -52.9522
4 23.0817 52.9522 -50.2368
4 25.7973 50.2368 -50.2368
4 25.7973 52.9522 -52.9522
4 27.155 48.879 -54.31
4 27.155 51.5945 -51.5945
4 29.8705 48.879 -51.5945
4 29.8705 51.5945 -54.31
4 28.5128 50.2368 -52.9522
4 28.5128 52.9522 -50.2368
4 31.2282 50.2368 -50.2368
4 31.2282 52.9522 -52.9522
4 32.586 48.879 -54.31
4 32.586 51.5945 -51.5945
4 35.3015 48.879 -51.5945
4 35.3015 51.5945 -54.31
4 33.9438 50.2368 -52.9522
4 33.9438 52.9522 -50.2368
4 36.6593 50.2368 -50.2368
4 36.6593 52.9522 -52.9522
4 38.017 48.879 -54.31
4 38.017 51.5945 -51.5945
4 40.7325 48.879 -51.5945
4 40.7325 51.5945 -54.31
4 39.3747 50.2368 -52.9522
4 39.3747 52.9522 -50.2368
4 42.0902 50.2368 -50.2368
4 42.0902 52.9522 -52.9522
4 43.448 48.879 -54.31
4 43.448 51.5945 -51.5945
4 46.1635 48.879 -51.5945
4 46.1635 51.5945 -54.31
4 44.8058 50.2368 -52.9522
4 44.8058 52.9522 -50.2368
4 47.5213 50.2368 -50.2368
4 47.5213 52.9522 -52.9522
4 48.879 48.879 -54.31
4 48.879 51.5945 -51.5945
4 51.5945 48.879 -51.5945
4 51.5945 51.5945 -54.31
4 50.2368 50.2368 -52.9522
4 50.2368 52.9522 -50.2368
4 52.9522 50.2368 -50.2368
4 52.9522 52.9522 -52.9522
4 0 0 -48.879
3 2.44695 2.46785 -29.4523
4 2.7155 2.7155 -48.879
4 1.35775 1.35775 -47.5213
3 0.943869 5.75681 -29.0616
3 3.78404 3.95243 -28.2885
4 4.07325 4.07325 -47.5213
4 5.431 0 -48.879
3 5.31016 5.29857 -29.4509
3 7.91754 2.66277 -29.4045
4 8.1465 2.7155 -48.879
4 6.78875 1.35775 -47.5213
3 6.5574 6.73235 -28.1736
3 9.24142 4.0297 -28.0851
4 9.50425 4.07325 -47.5213
4 10.862 0 -48.879
3 10.6735 5.30277 -29.4587
3 13.5868 2.63581 -29.3905
4 13.5775 2.7155 -48.879
4 12.2197 1.35775 -47.5213
3 12.0492 6.70936 -28.2133
3 14.9328 4.02228 -28.2221
4 14.9352 4.07325 -47.5213
4 16.293 0 -48.879
3 16.2914 5.41279 -29.36
1 18.9962 2.62202 -29.4104
4 19.0085 2.7155 -48.879
4 17.6507 1.35775 -47.5213
1 17.5664 6.75981 -28.0632
1 20.3041 3.98903 -28.1171
4 20.3663 4.07325 -47.5213
4 21.724 0 -48.879
1 21.6855 5.35079 -29.409
1 24.4208 2.61721 -29.3605
4 24.4395 2.7155 -48.879
4 23.0817 1.35775 -47.5213
1 23.0391 6.79958 -28.0769
1 25.6743 4.09228 -28.0639
4 25.7973 4.07325 -47.5213
4 27.155 0 -48.879
1 27.0792 5.36828 -29.4166
1 29.8486 2.75654 -29.4886
4 29.8705 2.7155 -48.879
4 28.5128 1.35775 -47.5213
1 28.386 6.80903 -28.1014
1 31.2726 4.02644 -28.1599
4 31.2282 4.07325 -47.5213
4 32.586 0 -48.879
1 32.5291 5.41037 -29.465
1 35.3546 2.71712 -29.3834
4 35.3015 2.7155 -48.879
4 33.9438 1.35775 -47.5213
1 33.9135 6.75896 -28.1014
1 36.7353 4.03392 -27.9937
4 36.6593 4.07325 -47.5213
4 38.017 0 -48.879
1 38.0609 5.50467 -29.3524
1 40.8084 2.62178 -29.36
4 40.7325 2.7155 -48.879
4 39.3747 1.35775 -47.5213
1 39.5289 6.70981 -28.0727
1 42.2628 4.04092 -28.1
4 42.0902 4.07325 -47.5213
4 43.448 0 -48.879
1 43.574 5.49252 -29.33
1 46.197 2.83414 -29.3722
4 46.1635 2.7155 -48.879
4 44.8058 1.35775 -47.5213
1 44.9925 6.80443 -28.0325
1 47.7056 4.06267 -28.0987
4 47.5213 4.07325 -47.5213
4 48.879 0 -48.879
1 48.9629 5.47173 -29.3396
1 51.6855 2.84568 -29.3805
4 51.5945 2.7155 -48.879
4 50.2368 1.35775 -47.5213
1 50.4072 6.81942 -28.1766
1 53.4195 3.88776 -28.1605
4 52.9522 4.07325 -47.5213
4 0 5.431 -48.879
3 2.24869 7.74428 -29.4776
4 2.7155 8.1465 -48.879
4 1.35775 6.78875 -47.5213
3 0.83153 11.5327 -29.1126
3 3.63003 9.31074 -28.3332
4 4.07325 9.50425 -47.5213
4 5.431 5.431 -48.879
3 5.29297 10.7335 -29.3764
3 8.11476 8.05117 -29.4197
4 8.1465 8.1465 -48.879
4 6.78875 6.78875 -47.5213
3 6.56119 12.0707 -28.1445
3 9.39583 9.45754 -28.0824
4 9.50425 9.50425 -47.5213
4 10.862 5.431 -48.879
3 10.8067 10.8372 -29.3578
3 13.4764 8.06525 -29.4637
4 13.5775 8.1465 -48.879
4 12.2197 6.78875 -47.5213
3 12.0153 12.2696 -28.0418
3 14.8687 9.45619 -28.1865
4 14.9352 9.50425 -47.5213
4 16.293 5.431 -48.879
3 16.3343 10.854 -29.3441
1 18.9357 8.10014 -29.364
4 19.0085 8.1465 -48.879
4 17.6507 6.78875 -47.5213
1 17.6319 12.3116 -28.1049
1 20.3262 9.529 -28.1138
4 20.3663 9.50425 -47.5213
4 21.724 5.431 -48.879
1 21.7565 10.8542 -29.3196
1 24.4381 8.18575 -29.3266
4 24.4395 8.1465 -48.879
4 23.0817 6.78875 -47.5213
1 23.0628 12.1484 -28.0053
1 25.8615 9.54521 -28.1168
4 25.7973 9.50425 -47.5213
4 27.155 5.431 -48.879
1 27.2235 10.9902 -29.3717
1 29.9338 8.04893 -29.4166
4 29.8705 8.1465 -48.879
4 28.5128 6.78875 -47.5213
1 28.542 12.3768 -27.9891
1 31.2528 9.48614 -28.1422
4 31.2282 9.50425 -47.5213
4 32.586 5.431 -48.879
1 32.5623 10.9047 -29.3729
1 35.2309 8.1767 -29.3742
4 35.3015 8.1465 -48.879
4 33.9438 6.78875 -47.5213
1 33.9335 12.1237 -28.0375
1 36.7241 9.49562 -28.1088
4 36.6593 9.50425 -47.5213
4 38.017 5.431 -48.879
1 38.0332 10.8644 -29.3801
1 40.764 8.21302 -29.3003
4 40.7325 8.1465 -48.879
4 39.3747 6.78875 -47.5213
1 39.4333 12.1336 -28.1469
1 42.3472 9.52042 -28.0614
4 42.0902 9.50425 -47.5213
4 43.448 5.431 -48.879
1 43.6042 10.9574 -29.3391
1 46.2739 8.17446 -29.3244
4 46.1635 8.1465 -48.879
4 44.8058 6.78875 -47.5213
1 45.0543 12.1571 -28.0344
1 47.7809 9.45867 -28.164
4 47.5213 9.50425 -47.5213
4 48.879 5.431 -48.879
1 49.0026 10.9164 -29.379
1 51.713 8.21858 -29.4101
4 51.5945 8.1465 -48.879
4 50.2368 6.78875 -47.5213
1 50.545 12.2176 -28.1374
1 53.4024 9.61605 -28.6239
4 52.9522 9.50425 -47.5213
4 0 10.862 -48.879
3 2.50148 13.3056 -29.4842
4 2.7155 13.5775 -48.879
4 1.35775 12.2197 -47.5213
3 0.773925 17.7077 -28.1359
3 3.61513 14.8787 -28.2643
4 4.07325 14.9352 -47.5213
4 5.431 10.862 -48.879
3 5.26738 16.0844 -29.4166
3 8.04454 13.4456 -29.4203
4 8.1465 13.5775 -48.879
4 6.78875 12.2197 -47.5213
3 6.53513 17.5468 -28.0879
3 9.37168 14.9806 -28.2119
4 9.50425 14.9352 -47.5213
4 10.862 10.862 -48.879
3 10.8227 16.2646 -29.4957
3 13.4832 13.5783 -29.3302
4 13.5775 13.5775 -48.879
4 12.2197 12.2197 -47.5213
3 12.065 17.5514 -28.155
3 14.8645 14.9271 -28.0165
4 14.9352 14.9352 -47.5213
4 16.293 10.862 -48.879
3 16.2225 16.3315 -29.2696
1 19.0635 13.6143 -29.3456
4 19.0085 13.5775 -48.879
4 17.6507 12.2197 -47.5213
1 17.7244 17.5767 -28.1111
1 20.4003 14.9449 -27.9792
4 20.3663 14.9352 -47.5213
4 21.724 10.862 -48.879
1 21.7785 16.319 -29.3411
1 24.3979 13.5022 -29.3871
4 24.4395 13.5775 -48.879
4 23.0817 12.2197 -47.5213
1 23.0896 17.6207 -28.0041
1 25.7556 14.9071 -28.1246
4 25.7973 14.9352 -47.5213
4 27.155 10.862 -48.879
1 27.2075 16.2878 -29.359
1 29.9382 13.5562 -29.3218
4 29.8705 13.5775 -48.879
4 28.5128 12.2197 -47.5213
1 28.6466 17.6999 -28.0627
1 31.2086 14.9424 -27.998
4 31.2282 14.9352 -47.5213
4 32.586 10.862 -48.879
1 32.6289 16.3092 -29.3959
1 35.2835 13.5306 -29.3854
4 35.3015 13.5775 -48.879
4 33.9438 12.2197 -47.5213
1 34.0255 17.7343 -28.1532
1 36.6721 14.9566 -28.0683
4 36.6593 14.9352 -47.5213
4 38.017 10.862 -48.879
1 38.0218 16.3466 -29.3514
1 40.7073 13.5003 -29.4866
4 40.7325 13.5775 -48.879
4 39.3747 12.2197 -47.5213
1 39.5091 17.6154 -28.1498
1 42.1528 14.8552 -28.2224
4 42.0902 14.9352 -47.5213
4 43.448 10.862 -48.879
1 43.4919 16.3313 -29.3703
1 46.289 13.6573 -29.2813
4 46.1635 13.5775 -48.879
4 44.8058 12.2197 -47.5213
1 44.9716 17.6648 -28.147
1 47.763 15.0132 -28.1806
4 47.5213 14.9352 -47.5213
4 48.879 10.862 -48.879
1 49.0841 16.3972 -29.3381
1 51.7007 13.7594 -29.4431
4 51.5945 13.5775 -48.879
4 50.2368 12.2197 -47.5213
1 50.736 17.7628 -28.2607
1 53.4043 15.1345 -28.513
4 52.9522 14.9352 -47.5213
4 0 16.293 -48.879
3 2.44224 18.7984 -29.4648
4 2.7155 19.0085 -48.879
4 1.35775 17.6507 -47.5213
3 1.00827 22.2355 -29.1167
3 3.71815 20.113 -28.1625
4 4.07325 20.3663 -47.5213
4 5.431 16.293 -48.879
3 5.22813 21.5547 -29.3569
3 8.0425 18.8837 -29.4135
4 8.1465 19.0085 -48.879
4 6.78875 17.6507 -47.5213
3 6.57431 22.9943 -28.2168
3 9.31205 20.3039 -28.1406
4 9.50425 20.3663 -47.5213
4 10.862 16.293 -48.879
3 10.7287 21.6774 -29.4733
3 13.4383 18.9439 -29.4002
4 13.5775 19.0085 -48.879
4 12.2197 17.6507 -47.5213
3 12.1827 23.0172 -28.1052
3 14.8829 20.2444 -28.1718
4 14.9352 20.3663 -47.5213
4 16.293 16.293 -48.879
3 16.2889 21.7638 -29.4182
1 18.9833 18.9681 -29.3236
4 19.0085 19.0085 -48.879
4 17.6507 17.6507 -47.5213
1 17.7288 22.9412 -28.0888
1 20.4069 20.2914 -27.9745
4 20.3663 20.3663 -47.5213
4 21.724 16.293 -48.879
1 21.6743 21.721 -29.3761
1 24.3493 19.0034 -29.3931
4 24.4395 19.0085 -48.879
4 23.0817 17.6507 -47.5213
1 23.1274 23.1399 -28.0443
1 25.7851 20.2922 -27.9979
4 25.7973 20.3663 -47.5213
4 27.155 16.293 -48.879
1 27.1462 21.6283 -29.3279
1 29.8657 19.026 -29.4086
4 29.8705 19.0085 -48.879
4 28.5128 17.6507 -47.5213
1 28.5 23.0787 -28.0728
1 31.1909 20.4223 -28.149
4 31.2282 20.3663 -47.5213
4 32.586 16.293 -48.879
1 32.5946 21.7321 -29.3903
1 35.3991 19.0127 -29.4724
4 35.3015 19.0085 -48.879
4 33.9438 17.6507 -47.5213
1 34.0131 23.1867 -28.1125
1 36.7467 20.2967 -28.1254
4 36.6593 20.3663 -47.5213
4 38.017 16.293 -48.879
1 38.0639 21.7633 -29.3482
1 40.7312 19.0618 -29.4555
4 40.7325 19.0085 -48.879
4 39.3747 17.6507 -47.5213
1 39.452 23.1537 -28.06
1 42.1548 20.3193 -28.1724
4 42.0902 20.3663 -47.5213
4 43.448 16.293 -48.879
1 43.4896 21.7316 -29.3906
1 46.2459 19.1027 -29.432
4 46.1635 19.0085 -48.879
4 44.8058 17.6507 -47.5213
1 45.0039 23.0164 -28.1866
1 47.744 20.396 -28.1984
4 47.5213 20.3663 -47.5213
4 48.879 16.293 -48.879
1 49.1162 21.9448 -29.4523
1 51.9817 19.3066 -29.518
4 51.5945 19.0085 -48.879
4 50.2368 17.6507 -47.5213
1 50.7047 23.2391 -28.1871
1 53.3194 21.2787 -29.0249
4 52.9522 20.3663 -47.5213
4 0 21.724 -48.879
3 2.35097 24.1344 -29.4681
4 2.7155 24.4395 -48.879
4 1.35775 23.0817 -47.5213
3 0.758589 28.7269 -28.1773
3 3.61668 25.5967 -28.1415
4 4.07325 25.7973 -47.5213
4 5.431 21.724 -48.879
3 5.2163 26.987 -29.305
3 8.03587 24.3177 -29.4698
4 8.1465 24.4395 -48.879
4 6.78875 23.0817 -47.5213
3 6.53398 28.3398 -28.0944
3 9.30604 25.6254 -28.0878
4 9.50425 25.7973 -47.5213
4 10.862 21.724 -48.879
3 10.649 27.0707 -29.3886
3 13.5539 24.4584 -29.3443
4 13.5775 24.4395 -48.879
4 12.2197 23.0817 -47.5213
3 12.0586 28.424 -28.0997
3 14.914 25.8131 -28.0575
4 14.9352 25.7973 -47.5213
4 16.293 21.724 -48.879
3 16.2642 27.1631 -29.3688
1 19.04 24.437 -29.4206
4 19.0085 24.4395 -48.879
4 17.6507 23.0817 -47.5213
1 17.6831 28.527 -28.0786
1 20.3547 25.8079 -28.0533
4 20.3663 25.7973 -47.5213
4 21.724 21.724 -48.879
1 21.7885 27.1829 -29.3377
1 24.4512 24.5253 -29.3659
4 24.4395 24.4395 -48.879
4 23.0817 23.0817 -47.5213
1 23.1898 28.5201 -28.0241
1 25.7238 25.8188 -27.9433
4 25.7973 25.7973 -47.5213
4 27.155 21.724 -48.879
1 27.144 27.1805 -29.2932
1 29.8718 24.5128 -29.3135
4 29.8705 24.4395 -48.879
4 28.5128 23.0817 -47.5213
1 28.4704 28.525 -28.0223
1 31.2291 25.8319 -27.9865
4 31.2282 25.7973 -47.5213
4 32.586 21.724 -48.879
1 32.5229 27.1638 -29.4041