14198
 Atoms. Timestep: 120000
4 0 0 -54.31
4 0 2.7155 -51.5945
4 2.7155 0 -51.5945
4 2.7155 2.7155 -54.31
4 1.35775 1.35775 -52.9522
4 1.35775 4.07325 -50.2368
4 4.07325 1.35775 -50.2368
4 4.07325 4.07325 -52.9522
4 5.431 0 -54.31
4 5.431 2.7155 -51.5945
4 8.1465 0 -51.5945
4 8.1465 2.7155 -54.31
4 6.78875 1.35775 -52.9522
4 6.78875 4.07325 -50.2368
4 9.50425 1.35775 -50.2368
4 9.50425 4.07325 -52.9522
4 10.862 0 -54.31
4 10.862 2.7155 -51.5945
4 13.5775 0 -51.5945
4 13.5775 2.7155 -54.31
4 12.2197 1.35775 -52.9522
4 12.2197 4.07325 -50.2368
4 14.9352 1.35775 -50.2368
4 14.9352 4.07325 -52.9522
4 16.293 0 -54.31
4 16.293 2.7155 -51.5945
4 19.0085 0 -51.5945
4 19.0085 2.7155 -54.31
4 17.6507 1.35775 -52.9522
4 17.6507 4.07325 -50.2368
4 20.3663 1.35775 -50.2368
4 20.3663 4.07325 -52.9522
4 21.724 0 -54.31
4 21.724 2.7155 -51.5945
4 24.4395 0 -51.5945
4 24.4395 2.7155 -54.31
4 23.0817 1.35775 -52.9522
4 23.0817 4.07325 -50.2368
4 25.7973 1.35775 -50.2368
4 25.7973 4.07325 -52.9522
4 27.155 0 -54.31
4 27.155 2.7155 -51.5945
4 29.8705 0 -51.5945
4 29.8705 2.7155 -54.31
4 28.5128 1.35775 -52.9522
4 28.5128 4.07325 -50.2368
4 31.2282 1.35775 -50.2368
4 31.2282 4.07325 -52.9522
4 32.586 0 -54.31
4 32.586 2.7155 -51.5945
4 35.3015 0 -51.5945
4 35.3015 2.7155 -54.31
4 33.9438 1.35775 -52.9522
4 33.9438 4.07325 -50.2368
4 36.6593 1.35775 -50.2368
4 36.6593 4.07325 -52.9522
4 38.017 0 -54.31
4 38.017 2.7155 -51.5945
4 40.7325 0 -51.5945
4 40.7325 2.7155 -54.31
4 39.3747 1.35775 -52.9522
4 39.3747 4.07325 -50.2368
4 42.0902 1.35775 -50.2368
4 42.0902 4.07325 -52.9522
4 43.448 0 -54.31
4 43.448 2.7155 -51.5945
4 46.1635 0 -51.5945
4 46.1635 2.7155 -54.31
4 44.8058 1.35775 -52.9522
4 44.8058 4.07325 -50.2368
4 47.5213 1.35775 -50.2368
4 47.5213 4.07325 -52.9522
4 48.879 0 -54.31
4 48.879 2.7155 -51.5945
4 51.5945 0 -51.5945
4 51.5945 2.7155 -54.31
4 50.2368 1.35775 -52.9522
4 50.2368 4.07325 -50.2368
4 52.9522 1.35775 -50.2368
4 52.9522 4.07325 -52.9522
4 0 5.431 -54.31
4 0 8.1465 -51.5945
4 2.7155 5.431 -51.5945
4 2.7155 8.1465 -54.31
4 1.35775 6.78875 -52.9522
4 1.35775 9.50425 -50.2368
4 4.07325 6.78875 -50.2368
4 4.07325 9.50425 -52.9522
4 5.431 5.431 -54.31
4 5.431 8.1465 -51.5945
4 8.1465 5.431 -51.5945
4 8.1465 8.1465 -54.31
4 6.78875 6.78875 -52.9522
4 6.78875 9.50425 -50.2368
4 9.50425 6.78875 -50.2368
4 9.50425 9.50425 -52.9522
4 10.862 5.431 -54.31
4 10.862 8.1465 -51.5945
4 13.5775 5.431 -51.5945
4 13.5775 8.1465 -54.31
4 12.2197 6.78875 -52.9522
4 12.2197 9.50425 -50.2368
4 14.9352 6.78875 -50.2368
4 14.9352 9.50425 -52.9522
4 16.293 5.431 -54.31
4 16.293 8.1465 -51.5945
4 19.0085 5.431 -51.5945
4 19.0085 8.1465 -54.31
4 17.6507 6.78875 -52.9522
4 17.6507 9.50425 -50.2368
4 20.3663 6.78875 -50.2368
4 20.3663 9.50425 -52.9522
4 21.724 5.431 -54.31
4 21.724 8.1465 -51.5945
4 24.4395 5.431 -51.5945
4 24.4395 8.1465 -54.31
4 23.0817 6.78875 -52.9522
4 23.0817 9.50425 -50.2368
4 25.7973 6.78875 -50.2368
4 25.7973 9.50425 -52.9522
4 27.155 5.431 -54.31
4 27.155 8.1465 -51.5945
4 29.8705 5.431 -51.5945
4 29.8705 8.1465 -54.31
4 28.5128 6.78875 -52.9522
4 28.5128 9.50425 -50.2368
4 31.2282 6.78875 -50.2368
4 31.2282 9.50425 -52.9522
4 32.586 5.431 -54.31
4 32.586 8.1465 -51.5945
4 35.3015 5.431 -51.5945
4 35.3015 8.1465 -54.31
4 33.9438 6.78875 -52.9522
4 33.9438 9.50425 -50.2368
4 36.6593 6.78875 -50.2368
4 36.6593 9.50425 -52.9522
4 38.017 5.431 -54.31
4 38.017 8.1465 -51.5945
4 40.7325 5.431 -51.5945
4 40.7325 8.1465 -54.31
4 39.3747 6.78875 -52.9522
4 39.3747 9.50425 -50.2368
4 42.0902 6.78875 -50.2368
4 42.0902 9.50425 -52.9522
4 43.448 5.431 -54.31
4 43.448 8.1465 -51.5945
4 46.1635 5.431 -51.5945
4 46.1635 8.1465 -54.31
4 44.8058 6.78875 -52.9522
4 44.8058 9.50425 -50.2368
4 47.5213 6.78875 -50.2368
4 47.5213 9.50425 -52.9522
4 48.879 5.431 -54.31
4 48.879 8.1465 -51.5945
4 51.5945 5.431 -51.5945
4 51.5945 8.1465 -54.31
4 50.2368 6.78875 -52.9522
4 50.2368 9.50425 -50.2368
4 52.9522 6.78875 -50.2368
4 52.9522 9.50425 -52.9522
4 0 10.862 -54.31
4 0 13.5775 -51.5945
4 2.7155 10.862 -51.5945
4 2.7155 13.5775 -54.31
4 1.35775 12.2197 -52.9522
4 1.35775 14.9352 -50.2368
4 4.07325 12.2197 -50.2368
4 4.07325 14.9352 -52.9522
4 5.431 10.862 -54.31
4 5.431 13.5775 -51.5945
4 8.1465 10.862 -51.5945
4 8.1465 13.5775 -54.31
4 6.78875 12.2197 -52.9522
4 6.78875 14.9352 -50.2368
4 9.50425 12.2197 -50.2368
4 9.50425 14.9352 -52.9522
4 10.862 10.862 -54.31
4 10.862 13.5775 -51.5945
4 13.5775 10.862 -51.5945
4 13.5775 13.5775 -54.31
4 12.2197 12.2197 -52.9522
4 12.2197 14.9352 -50.2368
4 14.9352 12.2197 -50.2368
4 14.9352 14.9352 -52.9522
4 16.293 10.862 -54.31
4 16.293 13.5775 -51.5945
4 19.0085 10.862 -51.5945
4 19.0085 13.5775 -54.31
4 17.6507 12.2197 -52.9522
4 17.6507 14.9352 -50.2368
4 20.3663 12.2197 -50.2368
4 20.3663 14.9352 -52.9522
4 21.724 10.862 -54.31
4 21.724 13.5775 -51.5945
4 24.4395 10.862 -51.5945
4 24.4395 13.5775 -54.31
4 23.0817 12.2197 -52.9522
4 23.0817 14.9352 -50.2368
4 25.7973 12.2197 -50.2368
4 25.7973 14.9352 -52.9522
4 27.155 10.862 -54.31
4 27.155 13.5775 -51.5945
4 29.8705 10.862 -51.5945
4 29.8705 13.5775 -54.31
4 28.5128 12.2197 -52.9522
4 28.5128 14.9352 -50.2368
4 31.2282 12.2197 -50.2368
4 31.2282 14.9352 -52.9522
4 32.586 10.862 -54.31
4 32.586 13.5775 -51.5945
4 35.3015 10.862 -51.5945
4 35.3015 13.5775 -54.31
4 33.9438 12.2197 -52.9522
4 33.9438 14.9352 -50.2368
4 36.6593 12.2197 -50.2368
4 36.6593 14.9352 -52.9522
4 38.017 10.862 -54.31
4 38.017 13.5775 -51.5945
4 40.7325 10.862 -51.5945
4 40.7325 13.5775 -54.31
4 39.3747 12.2197 -52.9522
4 39.3747 14.9352 -50.2368
4 42.0902 12.2197 -50.2368
4 42.0902 14.9352 -52.9522
4 43.448 10.862 -54.31
4 43.448 13.5775 -51.5945
4 46.1635 10.862 -51.5945
4 46.1635 13.5775 -54.31
4 44.8058 12.2197 -52.9522
4 44.8058 14.9352 -50.2368
4 47.5213 12.2197 -50.2368
4 47.5213 14.9352 -52.9522
4 48.879 10.862 -54.31
4 48.879 13.5775 -51.5945
4 51.5945 10.862 -51.5945
4 51.5945 13.5775 -54.31
4 50.2368 12.2197 -52.9522
4 50.2368 14.9352 -50.2368
4 52.9522 12.2197 -50.2368
4 52.9522 14.9352 -52.9522
4 0 16.293 -54.31
4 0 19.0085 -51.5945
4 2.7155 16.293 -51.5945
4 2.7155 19.0085 -54.31
4 1.35775 17.6507 -52.9522
4 1.35775 20.3663 -50.2368
4 4.07325 17.6507 -50.2368
4 4.07325 20.3663 -52.9522
4 5.431 16.293 -54.31
4 5.431 19.0085 -51.5945
4 8.1465 16.293 -51.5945
4 8.1465 19.0085 -54.31
4 6.78875 17.6507 -52.9522
4 6.78875 20.3663 -50.2368
4 9.50425 17.6507 -50.2368
4 9.50425 20.3663 -52.9522
4 10.862 16.293 -54.31
4 10.862 19.0085 -51.5945
4 13.5775 16.293 -51.5945
4 13.5775 19.0085 -54.31
4 12.2197 17.6507 -52.9522
4 12.2197 20.3663 -50.2368
4 14.9352 17.6507 -50.2368
4 14.9352 20.3663 -52.9522
4 16.293 16.293 -54.31
4 16.293 19.0085 -51.5945
4 19.0085 16.293 -51.5945
4 19.0085 19.0085 -54.31
4 17.6507 17.6507 -52.9522
4 17.6507 20.3663 -50.2368
4 20.3663 17.6507 -50.2368
4 20.3663 20.3663 -52.9522
4 21.724 16.293 -54.31
4 21.724 19.0085 -51.5945
4 24.4395 16.293 -51.5945
4 24.4395 19.0085 -54.31
4 23.0817 17.6507 -52.9522
4 23.0817 20.3663 -50.2368
4 25.7973 17.6507 -50.2368
4 25.7973 20.3663 -52.9522
4 27.155 16.293 -54.31
4 27.155 19.0085 -51.5945
4 29.8705 16.293 -51.5945
4 29.8705 19.0085 -54.31
4 28.5128 17.6507 -52.9522
4 28.5128 20.3663 -50.2368
4 31.2282 17.6507 -50.2368
4 31.2282 20.3663 -52.9522
4 32.586 16.293 -54.31
4 32.586 19.0085 -51.5945
4 35.3015 16.293 -51.5945
4 35.3015 19.0085 -54.31
4 33.9438 17.6507 -52.9522
4 33.9438 20.3663 -50.2368
4 36.6593 17.6507 -50.2368
4 36.6593 20.3663 -52.9522
4 38.017 16.293 -54.31
4 38.017 19.0085 -51.5945
4 40.7325 16.293 -51.5945
4 40.7325 19.0085 -54.31
4 39.3747 17.6507 -52.9522
4 39.3747 20.3663 -50.2368
4 42.0902 17.6507 -50.2368
4 42.0902 20.3663 -52.9522
4 43.448 16.293 -54.31
4 43.448 19.0085 -51.5945
4 46.1635 16.293 -51.5945
4 46.1635 19.0085 -54.31
4 44.8058 17.6507 -52.9522
4 44.8058 20.3663 -50.2368
4 47.5213 17.6507 -50.2368
4 47.5213 20.3663 -52.9522
4 48.879 16.293 -54.31
4 48.879 19.0085 -51.5945
4 51.5945 16.293 -51.5945
4 51.5945 19.0085 -54.31
4 50.2368 17.6507 -52.9522
4 50.2368 20.3663 -50.2368
4 52.9522 17.6507 -50.2368
4 52.9522 20.3663 -52.9522
4 0 21.724 -54.31
4 0 24.4395 -51.5945
4 2.7155 21.724 -51.5945
4 2.7155 24.4395 -54.31
4 1.35775 23.0817 -52.9522
4 1.35775 25.7973 -50.2368
4 4.07325 23.0817 -50.2368
4 4.07325 25.7973 -52.9522
4 5.431 21.724 -54.31
4 5.431 24.4395 -51.5945
4 8.1465 21.724 -51.5945
4 8.1465 24.4395 -54.31
4 6.78875 23.0817 -52.9522
4 6.78875 25.7973 -50.2368
4 9.50425 23.0817 -50.2368
4 9.50425 25.7973 -52.9522
4 10.862 21.724 -54.31
4 10.862 24.4395 -51.5945
4 13.5775 21.724 -51.5945
4 13.5775 24.4395 -54.31
4 12.2197 23.0817 -52.9522
4 12.2197 25.7973 -50.2368
4 14.9352 23.0817 -50.2368
4 14.9352 25.7973 -52.9522
4 16.293 21.724 -54.31
4 16.293 24.4395 -51.5945
4 19.0085 21.724 -51.5945
4 19.0085 24.4395 -54.31
4 17.6507 23.0817 -52.9522
4 17.6507 25.7973 -50.2368
4 20.3663 23.0817 -50.2368
4 20.3663 25.7973 -52.9522
4 21.724 21.724 -54.31
4 21.724 24.4395 -51.5945
4 24.4395 21.724 -51.5945
4 24.4395 24.4395 -54.31
4 23.0817 23.0817 -52.9522
4 23.0817 25.7973 -50.2368
4 25.7973 23.0817 -50.2368
4 25.7973 25.7973 -52.9522
4 27.155 21.724 -54.31
4 27.155 24.4395 -51.5945
4 29.8705 21.724 -51.5945
4 29.8705 24.4395 -54.31
4 28.5128 23.0817 -52.9522
4 28.5128 25.7973 -50.2368
4 31.2282 23.0817 -50.2368
4 31.2282 25.7973 -52.9522
4 32.586 21.724 -54.31
4 32.586 24.4395 -51.5945
4 35.3015 21.724 -51.5945
4 35.3015 24.4395 -54.31
4 33.9438 23.0817 -52.9522
4 33.9438 25.7973 -50.2368
4 36.6593 23.0817 -50.2368
4 36.6593 25.7973 -52.9522
4 38.017 21.724 -54.31
4 38.017 24.4395 -51.5945
4 40.7325 21.724 -51.5945
4 40.7325 24.4395 -54.31
4 39.3747 23.0817 -52.9522
4 39.3747 25.7973 -50.2368
4 42.0902 23.0817 -50.2368
4 42.0902 25.7973 -52.9522
4 43.448 21.724 -54.31
4 43.448 24.4395 -51.5945
4 46.1635 21.724 -51.5945
4 46.1635 24.4395 -54.31
4 44.8058 23.0817 -52.9522
4 44.8058 25.7973 -50.2368
4 47.5213 23.0817 -50.2368
4 47.5213 25.7973 -52.9522
4 48.879 21.724 -54.31
4 48.879 24.4395 -51.5945
4 51.5945 21.724 -51.5945
4 51.5945 24.4395 -54.31
4 50.2368 23.0817 -52.9522
4 50.2368 25.7973 -50.2368
4 52.9522 23.0817 -50.2368
4 52.9522 25.7973 -52.9522
4 0 27.155 -54.31
4 0 29.8705 -51.5945
4 2.7155 27.155 -51.5945
4 2.7155 29.8705 -54.31
4 1.35775 28.5128 -52.9522
4 1.35775 31.2282 -50.2368
4 4.07325 28.5128 -50.2368
4 4.07325 31.2282 -52.9522
4 5.431 27.155 -54.31
4 5.431 29.8705 -51.5945
4 8.1465 27.155 -51.5945
4 8.1465 29.8705 -54.31
4 6.78875 28.5128 -52.9522
4 6.78875 31.2282 -50.2368
4 9.50425 28.5128 -50.2368
4 9.50425 31.2282 -52.9522
4 10.862 27.155 -54.31
4 10.862 29.8705 -51.5945
4 13.5775 27.155 -51.5945
4 13.5775 29.8705 -54.31
4 12.2197 28.5128 -52.9522
4 12.2197 31.2282 -50.2368
4 14.9352 28.5128 -50.2368
4 14.9352 31.2282 -52.9522
4 16.293 27.155 -54.31
4 16.293 29.8705 -51.5945
4 19.0085 27.155 -51.5945
4 19.0085 29.8705 -54.31
4 17.6507 28.5128 -52.9522
4 17.6507 31.2282 -50.2368
4 20.3663 28.5128 -50.2368
4 20.3663 31.2282 -52.9522
4 21.724 27.155 -54.31
4 21.724 29.8705 -51.5945
4 24.4395 27.155 -51.5945
4 24.4395 29.8705 -54.31
4 23.0817 28.5128 -52.9522
4 23.0817 31.2282 -50.2368
4 25.7973 28.5128 -50.2368
4 25.7973 31.2282 -52.9522
4 27.155 27.155 -54.31
4 27.155 29.8705 -51.5945
4 29.8705 27.155 -51.5945
4 29.8705 29.8705 -54.31
4 28.5128 28.5128 -52.9522
4 28.5128 31.2282 -50.2368
4 31.2282 28.5128 -50.2368
4 31.2282 31.2282 -52.9522
4 32.586 27.155 -54.31
4 32.586 29.8705 -51.5945
4 35.3015 27.155 -51.5945
4 35.3015 29.8705 -54.31
4 33.9438 28.5128 -52.9522
4 33.9438 31.2282 -50.2368
4 36.6593 28.5128 -50.2368
4 36.6593 31.2282 -52.9522
4 38.017 27.155 -54.31
4 38.017 29.8705 -51.5945
4 40.7325 27.155 -51.5945
4 40.7325 29.8705 -54.31
4 39.3747 28.5128 -52.9522
4 39.3747 31.2282 -50.2368
4 42.0902 28.5128 -50.2368
4 42.0902 31.2282 -52.9522
4 43.448 27.155 -54.31
4 43.448 29.8705 -51.5945
4 46.1635 27.155 -51.5945
4 46.1635 29.8705 -54.31
4 44.8058 28.5128 -52.9522
4 44.8058 31.2282 -50.2368
4 47.5213 28.5128 -50.2368
4 47.5213 31.2282 -52.9522
4 48.879 27.155 -54.31
4 48.879 29.8705 -51.5945
4 51.5945 27.155 -51.5945
4 51.5945 29.8705 -54.31
4 50.2368 28.5128 -52.9522
4 50.2368 31.2282 -50.2368
4 52.9522 28.5128 -50.2368
4 52.9522 31.2282 -52.9522
4 0 32.586 -54.31
4 0 35.3015 -51.5945
4 2.7155 32.586 -51.5945
4 2.7155 35.3015 -54.31
4 1.35775 33.9438 -52.9522
4 1.35775 36.6593 -50.2368
4 4.07325 33.9438 -50.2368
4 4.07325 36.6593 -52.9522
4 5.431 32.586 -54.31
4 5.431 35.3015 -51.5945
4 8.1465 32.586 -51.5945
4 8.1465 35.3015 -54.31
4 6.78875 33.9438 -52.9522
4 6.78875 36.6593 -50.2368
4 9.50425 33.9438 -50.2368
4 9.50425 36.6593 -52.9522
4 10.862 32.586 -54.31
4 10.862 35.3015 -51.5945
4 13.5775 32.586 -51.5945
4 13.5775 35.3015 -54.31
4 12.2197 33.9438 -52.9522
4 12.2197 36.6593 -50.2368
4 14.9352 33.9438 -50.2368
4 14.9352 36.6593 -52.9522
4 16.293 32.586 -54.31
4 16.293 35.3015 -51.5945
4 19.0085 32.586 -51.5945
4 19.0085 35.3015 -54.31
4 17.6507 33.9438 -52.9522
4 17.6507 36.6593 -50.2368
4 20.3663 33.9438 -50.2368
4 20.3663 36.6593 -52.9522
4 21.724 32.586 -54.31
4 21.724 35.3015 -51.5945
4 24.4395 32.586 -51.5945
4 24.4395 35.3015 -54.31
4 23.0817 33.9438 -52.9522
4 23.0817 36.6593 -50.2368
4 25.7973 33.9438 -50.2368
4 25.7973 36.6593 -52.9522
4 27.155 32.586 -54.31
4 27.155 35.3015 -51.5945
4 29.8705 32.586 -51.5945
4 29.8705 35.3015 -54.31
4 28.5128 33.9438 -52.9522
4 28.5128 36.6593 -50.2368
4 31.2282 33.9438 -50.2368
4 31.2282 36.6593 -52.9522
4 32.586 32.586 -54.31
4 32.586 35.3015 -51.5945
4 35.3015 32.586 -51.5945
4 35.3015 35.3015 -54.31
4 33.9438 33.9438 -52.9522
4 33.9438 36.6593 -50.2368
4 36.6593 33.9438 -50.2368
4 36.6593 36.6593 -52.9522
4 38.017 32.586 -54.31
4 38.017 35.3015 -51.5945
4 40.7325 32.586 -51.5945
4 40.7325 35.3015 -54.31
4 39.3747 33.9438 -52.9522
4 39.3747 36.6593 -50.2368
4 42.0902 33.9438 -50.2368
4 42.0902 36.6593 -52.9522
4 43.448 32.586 -54.31
4 43.448 35.3015 -51.5945
4 46.1635 32.586 -51.5945
4 46.1635 35.3015 -54.31
4 44.8058 33.9438 -52.9522
4 44.8058 36.6593 -50.2368
4 47.5213 33.9438 -50.2368
4 47.5213 36.6593 -52.9522
4 48.879 32.586 -54.31
4 48.879 35.3015 -51.5945
4 51.5945 32.586 -51.5945
4 51.5945 35.3015 -54.31
4 50.2368 33.9438 -52.9522
4 50.2368 36.6593 -50.2368
4 52.9522 33.9438 -50.2368
4 52.9522 36.6593 -52.9522
4 0 38.017 -54.31
4 0 40.7325 -51.5945
4 2.7155 38.017 -51.5945
4 2.7155 40.7325 -54.31
4 1.35775 39.3747 -52.9522
4 1.35775 42.0902 -50.2368
4 4.07325 39.3747 -50.2368
4 4.07325 42.0902 -52.9522
4 5.431 38.017 -54.31
4 5.431 40.7325 -51.5945
4 8.1465 38.017 -51.5945
4 8.1465 40.7325 -54.31
4 6.78875 39.3747 -52.9522
4 6.78875 42.0902 -50.2368
4 9.50425 39.3747 -50.2368
4 9.50425 42.0902 -52.9522
4 10.862 38.017 -54.31
4 10.862 40.7325 -51.5945
4 13.5775 38.017 -51.5945
4 13.5775 40.7325 -54.31
4 12.2197 39.3747 -52.9522
4 12.2197 42.0902 -50.2368
4 14.9352 39.3747 -50.2368
4 14.9352 42.0902 -52.9522
4 16.293 38.017 -54.31
4 16.293 40.7325 -51.5945
4 19.0085 38.017 -51.5945
4 19.0085 40.7325 -54.31
4 17.6507 39.3747 -52.9522
4 17.6507 42.0902 -50.2368
4 20.3663 39.3747 -50.2368
4 20.3663 42.0902 -52.9522
4 21.724 38.017 -54.31
4 21.724 40.7325 -51.5945
4 24.4395 38.017 -51.5945
4 24.4395 40.7325 -54.31
4 23.0817 39.3747 -52.9522
4 23.0817 42.0902 -50.2368
4 25.7973 39.3747 -50.2368
4 25.7973 42.0902 -52.9522
4 27.155 38.017 -54.31
4 27.155 40.7325 -51.5945
4 29.8705 38.017 -51.5945
4 29.8705 40.7325 -54.31
4 28.5128 39.3747 -52.9522
4 28.5128 42.0902 -50.2368
4 31.2282 39.3747 -50.2368
4 31.2282 42.0902 -52.9522
4 32.586 38.017 -54.31
4 32.586 40.7325 -51.5945
4 35.3015 38.017 -51.5945
4 35.3015 40.7325 -54.31
4 33.9438 39.3747 -52.9522
4 33.9438 42.0902 -50.2368
4 36.6593 39.3747 -50.2368
4 36.6593 42.0902 -52.9522
4 38.017 38.017 -54.31
4 38.017 40.7325 -51.5945
4 40.7325 38.017 -51.5945
4 40.7325 40.7325 -54.31
4 39.3747 39.3747 -52.9522
4 39.3747 42.0902 -50.2368
4 42.0902 39.3747 -50.2368
4 42.0902 42.0902 -52.9522
4 43.448 38.017 -54.31
4 43.448 40.7325 -51.5945
4 46.1635 38.017 -51.5945
4 46.1635 40.7325 -54.31
4 44.8058 39.3747 -52.9522
4 44.8058 42.0902 -50.2368
4 47.5213 39.3747 -50.2368
4 47.5213 42.0902 -52.9522
4 48.879 38.017 -54.31
4 48.879 40.7325 -51.5945
4 51.5945 38.017 -51.5945
4 51.5945 40.7325 -54.31
4 50.2368 39.3747 -52.9522
4 50.2368 42.0902 -50.2368
4 52.9522 39.3747 -50.2368
4 52.9522 42.0902 -52.9522
4 0 43.448 -54.31
4 0 46.1635 -51.5945
4 2.7155 43.448 -51.5945
4 2.7155 46.1635 -54.31
4 1.35775 44.8058 -52.9522
4 1.35775 47.5213 -50.2368
4 4.07325 44.8058 -50.2368
4 4.07325 47.5213 -52.9522
4 5.431 43.448 -54.31
4 5.431 46.1635 -51.5945
4 8.1465 43.448 -51.5945
4 8.1465 46.1635 -54.31
4 6.78875 44.8058 -52.9522
4 6.78875 47.5213 -50.2368
4 9.50425 44.8058 -50.2368
4 9.50425 47.5213 -52.9522
4 10.862 43.448 -54.31
4 10.862 46.1635 -51.5945
4 13.5775 43.448 -51.5945
4 13.5775 46.1635 -54.31
4 12.2197 44.8058 -52.9522
4 12.2197 47.5213 -50.2368
4 14.9352 44.8058 -50.2368
4 14.9352 47.5213 -52.9522
4 16.293 43.448 -54.31
4 16.293 46.1635 -51.5945
4 19.0085 43.448 -51.5945
4 19.0085 46.1635 -54.31
4 17.6507 44.8058 -52.9522
4 17.6507 47.5213 -50.2368
4 20.3663 44.8058 -50.2368
4 20.3663 47.5213 -52.9522
4 21.724 43.448 -54.31
4 21.724 46.1635 -51.5945
4 24.4395 43.448 -51.5945
4 24.4395 46.1635 -54.31
4 23.0817 44.8058 -52.9522
4 23.0817 47.5213 -50.2368
4 25.7973 44.8058 -50.2368
4 25.7973 47.5213 -52.9522
4 27.155 43.448 -54.31
4 27.155 46.1635 -51.5945
4 29.8705 43.448 -51.5945
4 29.8705 46.1635 -54.31
4 28.5128 44.8058 -52.9522
4 28.5128 47.5213 -50.2368
4 31.2282 44.8058 -50.2368
4 31.2282 47.5213 -52.9522
4 32.586 43.448 -54.31
4 32.586 46.1635 -51.5945
4 35.3015 43.448 -51.5945
4 35.3015 46.1635 -54.31
4 33.9438 44.8058 -52.9522
4 33.9438 47.5213 -50.2368
4 36.6593 44.8058 -50.2368
4 36.6593 47.5213 -52.9522
4 38.017 43.448 -54.31
4 38.017 46.1635 -51.5945
4 40.7325 43.448 -51.5945
4 40.7325 46.1635 -54.31
4 39.3747 44.8058 -52.9522
4 39.3747 47.5213 -50.2368
4 42.0902 44.8058 -50.2368
4 42.0902 47.5213 -52.9522
4 43.448 43.448 -54.31
4 43.448 46.1635 -51.5945
4 46.1635 43.448 -51.5945
4 46.1635 46.1635 -54.31
4 44.8058 44.8058 -52.9522
4 44.8058 47.5213 -50.2368
4 47.5213 44.8058 -50.2368
4 47.5213 47.5213 -52.9522
4 48.879 43.448 -54.31
4 48.879 46.1635 -51.5945
4 51.5945 43.448 -51.5945
4 51.5945 46.1635 -54.31
4 50.2368 44.8058 -52.9522
4 50.2368 47.5213 -50.2368
4 52.9522 44.8058 -50.2368
4 52.9522 47.5213 -52.9522
4 0 48.879 -54.31
4 0 51.5945 -51.5945
4 2.7155 48.879 -51.5945
4 2.7155 51.5945 -54.31
4 1.35775 50.2368 -52.9522
4 1.35775 52.9522 -50.2368
4 4.07325 50.2368 -50.2368
4 4.07325 52.9522 -52.9522
4 5.431 48.879 -54.31
4 5.431 51.5945 -51.5945
4 8.1465 48.879 -51.5945
4 8.1465 51.5945 -54.31
4 6.78875 50.2368 -52.9522
4 6.78875 52.9522 -50.2368
4 9.50425 50.2368 -50.2368
4 9.50425 52.9522 -52.9522
4 10.862 48.879 -54.31
4 10.862 51.5945 -51.5945
4 13.5775 48.879 -51.5945
4 13.5775 51.5945 -54.31
4 12.2197 50.2368 -52.9522
4 12.2197 52.9522 -50.2368
4 14.9352 50.2368 -50.2368
4 14.9352 52.9522 -52.9522
4 16.293 48.879 -54.31
4 16.293 51.5945 -51.5945
4 19.0085 48.879 -51.5945
4 19.0085 51.5945 -54.31
4 17.6507 50.2368 -52.9522
4 17.6507 52.9522 -50.2368
4 20.3663 50.2368 -50.2368
4 20.3663 52.9522 -52.9522
4 21.724 48.879 -54.31
4 21.724 51.5945 -51.5945
4 24.4395 48.879 -51.5945
4 24.4395 51.5945 -54.31
4 23.0817 50.2368 -52.9522
4 23.0817 52.9522 -50.2368
4 25.7973 50.2368 -50.2368
4 25.7973 52.9522 -52.9522
4 27.155 48.879 -54.31
4 27.155 51.5945 -51.5945
4 29.8705 48.879 -51.5945
4 29.8705 51.5945 -54.31
4 28.5128 50.2368 -52.9522
4 28.5128 52.9522 -50.2368
4 31.2282 50.2368 -50.2368
4 31.2282 52.9522 -52.9522
4 32.586 48.879 -54.31
4 32.586 51.5945 -51.5945
4 35.3015 48.879 -51.5945
4 35.3015 51.5945 -54.31
4 33.9438 50.2368 -52.9522
4 33.9438 52.9522 -50.2368
4 36.6593 50.2368 -50.2368
4 36.6593 52.9522 -52.9522
4 38.017 48.879 -54.31
4 38.017 51.5945 -51.5945
4 40.7325 48.879 -51.5945
4 40.7325 51.5945 -54.31
4 39.3747 50.2368 -52.9522
4 39.3747 52.9522 -50.2368
4 42.0902 50.2368 -50.2368
4 42.0902 52.9522 -52.9522
4 43.448 48.879 -54.31
4 43.448 51.5945 -51.5945
4 46.1635 48.879 -51.5945
4 46.1635 51.5945 -54.31
4 44.8058 50.2368 -52.9522
4 44.8058 52.9522 -50.2368
4 47.5213 50.2368 -50.2368
4 47.5213 52.9522 -52.9522
4 48.879 48.879 -54.31
4 48.879 51.5945 -51.5945
4 51.5945 48.879 -51.5945
4 51.5945 51.5945 -54.31
4 50.2368 50.2368 -52.9522
4 50.2368 52.9522 -50.2368
4 52.9522 50.2368 -50.2368
4 52.9522 52.9522 -52.9522
4 0 0 -48.879
3 2.66444 2.67146 -24.3552
4 2.7155 2.7155 -48.879
4 1.35775 1.35775 -47.5213
3 1.31135 5.92563 -23.8041
3 4.08841 3.99086 -23.0542
4 4.07325 4.07325 -47.5213
4 5.431 0 -48.879
3 5.43209 5.35748 -24.3411
3 8.06499 2.65258 -24.3219
4 8.1465 2.7155 -48.879
4 6.78875 1.35775 -47.5213
3 6.77329 6.69439 -23.0056
3 9.46646 4.17121 -23.1305
4 9.50425 4.07325 -47.5213
4 10.862 0 -48.879
3 10.9075 5.5199 -24.3457
3 13.6001 2.66839 -24.3395
4 13.5775 2.7155 -48.879
4 12.2197 1.35775 -47.5213
3 12.2707 6.8492 -22.951
3 14.9728 4.12575 -23.025
4 14.9352 4.07325 -47.5213
4 16.293 0 -48.879
3 16.3656 5.51865 -24.3057
1 19.0794 2.70624 -24.3435
4 19.0085 2.7155 -48.879
4 17.6507 1.35775 -47.5213
1 17.7226 6.79817 -22.9333
1 20.5078 4.05618 -23.0095
4 20.3663 4.07325 -47.5213
4 21.724 0 -48.879
1 21.7737 5.43872 -24.3972
1 24.4739 2.71183 -24.3123
4 24.4395 2.7155 -48.879
4 23.0817 1.35775 -47.5213
1 23.1696 6.77951 -22.985
1 25.8513 4.16462 -22.9514
4 25.7973 4.07325 -47.5213
4 27.155 0 -48.879
1 27.1552 5.47955 -24.3422
1 29.9077 2.79578 -24.3674
4 29.8705 2.7155 -48.879
4 28.5128 1.35775 -47.5213
1 28.544 6.86294 -23.014
1 31.2422 4.17797 -23.0389
4 31.2282 4.07325 -47.5213
4 32.586 0 -48.879
1 32.6174 5.50023 -24.4246
1 35.4147 2.83222 -24.3203
4 35.3015 2.7155 -48.879
4 33.9438 1.35775 -47.5213
1 34.028 6.85634 -22.9415
1 36.818 4.17596 -23.0574
4 36.6593 4.07325 -47.5213
4 38.017 0 -48.879
1 38.1381 5.52845 -24.3469
1 40.8113 2.78924 -24.3196
4 40.7325 2.7155 -48.879
4 39.3747 1.35775 -47.5213
1 39.5159 6.80054 -22.9475
1 42.2209 4.11102 -22.9928
4 42.0902 4.07325 -47.5213
4 43.448 0 -48.879
1 43.5 5.48472 -24.2989
1 46.2634 2.78987 -24.3617
4 46.1635 2.7155 -48.879
4 44.8058 1.35775 -47.5213
1 45.0073 6.7984 -23.0783
1 47.6777 4.13264 -23.1141
4 47.5213 4.07325 -47.5213
4 48.879 0 -48.879
1 49.0165 5.52889 -24.3601
1 51.725 2.85094 -24.3724
4 51.5945 2.7155 -48.879
4 50.2368 1.35775 -47.5213
1 50.5967 6.92805 -23.1969
1 53.3855 3.69438 -22.8965
4 52.9522 4.07325 -47.5213
4 0 5.431 -48.879
3 2.49476 7.85627 -24.3973
4 2.7155 8.1465 -48.879
4 1.35775 6.78875 -47.5213
3 1.17976 11.3073 -23.773
3 3.84993 9.17774 -22.9903
4 4.07325 9.50425 -47.5213
4 5.431 5.431 -48.879
3 5.2831 10.6896 -24.3211
3 8.10669 8.10816 -24.304
4 8.1465 8.1465 -48.879
4 6.78875 6.78875 -47.5213
3 6.72522 12.1241 -23.0287
3 9.52538 9.45756 -23.021
4 9.50425 9.50425 -47.5213
4 10.862 5.431 -48.879
3 10.8715 10.8914 -24.3633
3 13.6423 8.21552 -24.3297
4 13.5775 8.1465 -48.879
4 12.2197 6.78875 -47.5213
3 12.2376 12.2428 -23.0635
3 15.043 9.53274 -22.9901
4 14.9352 9.50425 -47.5213
4 16.293 5.431 -48.879
3 16.3819 10.9072 -24.3566
1 19.0808 8.18436 -24.3162
4 19.0085 8.1465 -48.879
4 17.6507 6.78875 -47.5213
1 17.6421 12.1927 -22.9174
1 20.5212 9.47021 -23.0564
4 20.3663 9.50425 -47.5213
4 21.724 5.431 -48.879
1 21.7996 10.9692 -24.314
1 24.5369 8.18397 -24.2986
4 24.4395 8.1465 -48.879
4 23.0817 6.78875 -47.5213
1 23.1797 12.3475 -23.0033
1 25.9084 9.54984 -22.9791
4 25.7973 9.50425 -47.5213
4 27.155 5.431 -48.879
1 27.1909 10.8546 -24.3985
1 29.9223 8.16127 -24.3362
4 29.8705 8.1465 -48.879
4 28.5128 6.78875 -47.5213
1 28.5203 12.2906 -23.1373
1 31.2792 9.60555 -23.0321
4 31.2282 9.50425 -47.5213
4 32.586 5.431 -48.879
1 32.6413 10.9201 -24.3913
1 35.355 8.22091 -24.3667
4 35.3015 8.1465 -48.879
4 33.9438 6.78875 -47.5213
1 34.0844 12.2989 -22.9958
1 36.7987 9.5739 -23.0428
4 36.6593 9.50425 -47.5213
4 38.017 5.431 -48.879
1 38.0677 10.9632 -24.3336
1 40.718 8.22968 -24.3122
4 40.7325 8.1465 -48.879
4 39.3747 6.78875 -47.5213
1 39.4786 12.2933 -23.048
1 42.1858 9.57336 -23.1152
4 42.0902 9.50425 -47.5213
4 43.448 5.431 -48.879
1 43.5097 11.0254 -24.3502
1 46.3357 8.23409 -24.3165
4 46.1635 8.1465 -48.879
4 44.8058 6.78875 -47.5213
1 44.9571 12.3338 -23.1238
1 47.7996 9.61963 -23.081
4 47.5213 9.50425 -47.5213
4 48.879 5.431 -48.879
1 49.0671 11.0329 -24.3643
1 51.9039 8.47355 -24.4748
4 51.5945 8.1465 -48.879
4 50.2368 6.78875 -47.5213
1 50.6401 12.3623 -23.2494
1 53.359 10.3477 -24.1183
4 52.9522 9.50425 -47.5213
4 0 10.862 -48.879
3 2.54251 13.366 -24.3275
4 2.7155 13.5775 -48.879
4 1.35775 12.2197 -47.5213
3 1.42045 17.8671 -22.6229
3 3.92481 14.8226 -22.9728
4 4.07325 14.9352 -47.5213
4 5.431 10.862 -48.879
3 5.3731 16.222 -24.3351
3 8.13051 13.5401 -24.3504
4 8.1465 13.5775 -48.879
4 6.78875 12.2197 -47.5213
3 6.66783 17.65 -23.0245
3 9.37589 15.0283 -23.0389
4 9.50425 14.9352 -47.5213
4 10.862 10.862 -48.879
3 10.8727 16.2941 -24.3449
3 13.5966 13.6611 -24.3577
4 13.5775 13.5775 -48.879
4 12.2197 12.2197 -47.5213
3 12.2698 17.6706 -23.0274
3 14.9591 14.9208 -22.9341
4 14.9352 14.9352 -47.5213
4 16.293 10.862 -48.879
3 16.2902 16.2935 -24.2871
1 18.9797 13.5434 -24.3086
4 19.0085 13.5775 -48.879
4 17.6507 12.2197 -47.5213
1 17.6611 17.6907 -22.9521
1 20.3754 14.9228 -23.0054
4 20.3663 14.9352 -47.5213
4 21.724 10.862 -48.879
1 21.7571 16.3552 -24.2977
1 24.5336 13.6931 -24.3544
4 24.4395 13.5775 -48.879
4 23.0817 12.2197 -47.5213
1 23.1213 17.7095 -22.9989
1 25.9243 15.0565 -23.0295
4 25.7973 14.9352 -47.5213
4 27.155 10.862 -48.879
1 27.3443 16.4205 -24.3766
1 29.9428 13.717 -24.3942
4 29.8705 13.5775 -48.879
4 28.5128 12.2197 -47.5213
1 28.6097 17.8176 -22.97
1 31.3916 15.0997 -23.059
4 31.2282 14.9352 -47.5213
4 32.586 10.862 -48.879
1 32.7139 16.3973 -24.4146
1 35.3392 13.6423 -24.4014
4 35.3015 13.5775 -48.879
4 33.9438 12.2197 -47.5213
1 34.0496 17.7516 -22.9858
1 36.7639 14.9435 -23.0712
4 36.6593 14.9352 -47.5213
4 38.017 10.862 -48.879
1 38.0472 16.3561 -24.3593
1 40.8966 13.6552 -24.411
4 40.7325 13.5775 -48.879
4 39.3747 12.2197 -47.5213
1 39.4151 17.7023 -23.0356
1 42.2477 14.9766 -23.0102
4 42.0902 14.9352 -47.5213
4 43.448 10.862 -48.879
1 43.485 16.321 -24.339
1 46.2542 13.7067 -24.4659
4 46.1635 13.5775 -48.879
4 44.8058 12.2197 -47.5213
1 44.9025 17.6301 -23.1083
1 47.7468 14.9462 -23.1958
4 47.5213 14.9352 -47.5213
4 48.879 10.862 -48.879
1 49.0183 16.4574 -24.419
1 51.9227 13.948 -24.4429
4 51.5945 13.5775 -48.879
4 50.2368 12.2197 -47.5213
1 50.5176 17.8876 -23.2831
1 53.4042 15.8224 -24.1226
4 52.9522 14.9352 -47.5213
4 0 16.293 -48.879
3 2.70796 18.9732 -24.3877
4 2.7155 19.0085 -48.879
4 1.35775 17.6507 -47.5213
3 1.16245 22.2045 -23.8305
3 4.04593 20.3575 -23.0443
4 4.07325 20.3663 -47.5213
4 5.431 16.293 -48.879
3 5.39389 21.6824 -24.3399
3 8.04194 18.9985 -24.3314
4 8.1465 19.0085 -48.879
4 6.78875 17.6507 -47.5213
3 6.67636 23.079 -23.0111
3 9.49261 20.3491 -23.0234
4 9.50425 20.3663 -47.5213
4 10.862 16.293 -48.879
3 10.854 21.7317 -24.3197
3 13.6218 19.0811 -24.354
4 13.5775 19.0085 -48.879
4 12.2197 17.6507 -47.5213
3 12.1683 23.0328 -23.0309
3 15.0121 20.411 -22.9854
4 14.9352 20.3663 -47.5213
4 16.293 16.293 -48.879
3 16.3004 21.7386 -24.3147
1 19.0218 19.0616 -24.3361
4 19.0085 19.0085 -48.879
4 17.6507 17.6507 -47.5213
1 17.6951 23.185 -22.9873
1 20.3486 20.3988 -22.957
4 20.3663 20.3663 -47.5213
4 21.724 16.293 -48.879
1 21.7112 21.8028 -24.2707
1 24.5254 19.0743 -24.3027
4 24.4395 19.0085 -48.879
4 23.0817 17.6507 -47.5213
1 23.1533 23.1293 -22.9152
1 25.9339 20.4296 -22.9759
4 25.7973 20.3663 -47.5213
4 27.155 16.293 -48.879
1 27.2515 21.8051 -24.3157
1 29.9025 19.0825 -24.3698
4 29.8705 19.0085 -48.879
4 28.5128 17.6507 -47.5213
1 28.6728 23.1017 -22.9837
1 31.2819 20.4165 -23.053
4 31.2282 20.3663 -47.5213
4 32.586 16.293 -48.879
1 32.6336 21.8088 -24.3183
1 35.2853 19.0735 -24.4016
4 35.3015 19.0085 -48.879
4 33.9438 17.6507 -47.5213
1 33.9712 23.1712 -22.9931
1 36.6784 20.4091 -23.0608
4 36.6593 20.3663 -47.5213
4 38.017 16.293 -48.879
1 38.0856 21.7793 -24.3487
1 40.7723 19.0496 -24.338
4 40.7325 19.0085 -48.879
4 39.3747 17.6507 -47.5213
1 39.5301 23.1154 -23.1055
1 42.2103 20.4195 -23.1087
4 42.0902 20.3663 -47.5213
4 43.448 16.293 -48.879
1 43.5675 21.8263 -24.3733
1 46.1763 19.0576 -24.3275
4 46.1635 19.0085 -48.879
4 44.8058 17.6507 -47.5213
1 45.0117 23.1017 -23.0664
1 47.735 20.3859 -23.1777
4 47.5213 20.3663 -47.5213
4 48.879 16.293 -48.879
1 49 21.8387 -24.4352
1 51.9163 19.3719 -24.4269
4 51.5945 19.0085 -48.879
4 50.2368 17.6507 -47.5213
1 50.5658 23.2581 -23.3396
1 53.4444 21.345 -24.0693
4 52.9522 20.3663 -47.5213
4 0 21.724 -48.879
3 2.45986 24.2122 -24.4054
4 2.7155 24.4395 -48.879
4 1.35775 23.0817 -47.5213
3 1.16925 28.8725 -22.5796
3 3.82496 25.7336 -23.0629
4 4.07325 25.7973 -47.5213
4 5.431 21.724 -48.879
3 5.3769 27.0428 -24.3527
3 8.15434 24.3775 -24.3022
4 8.1465 24.4395 -48.879
4 6.78875 23.0817 -47.5213
3 6.72704 28.4345 -23.0066
3 9.43997 25.8503 -23.0551
4 9.50425 25.7973 -47.5213
4 10.862 21.724 -48.879
3 10.8672 27.1673 -24.3635
3 13.5718 24.3892 -24.3187
4 13.5775 24.4395 -48.879
4 12.2197 23.0817 -47.5213
3 12.2517 28.514 -23.0623
3 14.9861 25.794 -23.0471
4 14.9352 25.7973 -47.5213
4 16.293 21.724 -48.879
3 16.3351 27.1854 -24.3289
1 19.0585 24.5027 -24.2972
4 19.0085 24.4395 -48.879
4 17.6507 23.0817 -47.5213
1 17.6831 28.5501 -23.0155
1 20.4037 25.7767 -22.9084
4 20.3663 25.7973 -47.5213
4 21.724 21.724 -48.879
1 21.7677 27.1596 -24.4006
1 24.4475 24.4335 -24.3178
4 24.4395 24.4395 -48.879
4 23.0817 23.0817 -47.5213
1 23.1855 28.522 -23.0139
1 25.9459 25.7946 -23.0185
4 25.7973 25.7973 -47.5213
4 27.155 21.724 -48.879
1 27.2506 27.2456 -24.3806
1 29.9249 24.5367 -24.3415
4 29.8705 24.4395 -48.879
4 28.5128 23.0817 -47.5213
1 28.5558 28.5748 -22.9439
1 31.2368 25.9659 -23.0026
4 31.2282 25.7973 -47.5213
4 32.586 21.724 -48.879
1 32.6384 27.2442 -24.3023