14899
 Atoms. Timestep: 105000
4 0 0 -54.31
4 0 2.7155 -51.5945
4 2.7155 0 -51.5945
4 2.7155 2.7155 -54.31
4 1.35775 1.35775 -52.9522
4 1.35775 4.07325 -50.2368
4 4.07325 1.35775 -50.2368
4 4.07325 4.07325 -52.9522
4 5.431 0 -54.31
4 5.431 2.7155 -51.5945
4 8.1465 0 -51.5945
4 8.1465 2.7155 -54.31
4 6.78875 1.35775 -52.9522
4 6.78875 4.07325 -50.2368
4 9.50425 1.35775 -50.2368
4 9.50425 4.07325 -52.9522
4 10.862 0 -54.31
4 10.862 2.7155 -51.5945
4 13.5775 0 -51.5945
4 13.5775 2.7155 -54.31
4 12.2197 1.35775 -52.9522
4 12.2197 4.07325 -50.2368
4 14.9352 1.35775 -50.2368
4 14.9352 4.07325 -52.9522
4 16.293 0 -54.31
4 16.293 2.7155 -51.5945
4 19.0085 0 -51.5945
4 19.0085 2.7155 -54.31
4 17.6507 1.35775 -52.9522
4 17.6507 4.07325 -50.2368
4 20.3663 1.35775 -50.2368
4 20.3663 4.07325 -52.9522
4 21.724 0 -54.31
4 21.724 2.7155 -51.5945
4 24.4395 0 -51.5945
4 24.4395 2.7155 -54.31
4 23.0817 1.35775 -52.9522
4 23.0817 4.07325 -50.2368
4 25.7973 1.35775 -50.2368
4 25.7973 4.07325 -52.9522
4 27.155 0 -54.31
4 27.155 2.7155 -51.5945
4 29.8705 0 -51.5945
4 29.8705 2.7155 -54.31
4 28.5128 1.35775 -52.9522
4 28.5128 4.07325 -50.2368
4 31.2282 1.35775 -50.2368
4 31.2282 4.07325 -52.9522
4 32.586 0 -54.31
4 32.586 2.7155 -51.5945
4 35.3015 0 -51.5945
4 35.3015 2.7155 -54.31
4 33.9438 1.35775 -52.9522
4 33.9438 4.07325 -50.2368
4 36.6593 1.35775 -50.2368
4 36.6593 4.07325 -52.9522
4 38.017 0 -54.31
4 38.017 2.7155 -51.5945
4 40.7325 0 -51.5945
4 40.7325 2.7155 -54.31
4 39.3747 1.35775 -52.9522
4 39.3747 4.07325 -50.2368
4 42.0902 1.35775 -50.2368
4 42.0902 4.07325 -52.9522
4 43.448 0 -54.31
4 43.448 2.7155 -51.5945
4 46.1635 0 -51.5945
4 46.1635 2.7155 -54.31
4 44.8058 1.35775 -52.9522
4 44.8058 4.07325 -50.2368
4 47.5213 1.35775 -50.2368
4 47.5213 4.07325 -52.9522
4 48.879 0 -54.31
4 48.879 2.7155 -51.5945
4 51.5945 0 -51.5945
4 51.5945 2.7155 -54.31
4 50.2368 1.35775 -52.9522
4 50.2368 4.07325 -50.2368
4 52.9522 1.35775 -50.2368
4 52.9522 4.07325 -52.9522
4 0 5.431 -54.31
4 0 8.1465 -51.5945
4 2.7155 5.431 -51.5945
4 2.7155 8.1465 -54.31
4 1.35775 6.78875 -52.9522
4 1.35775 9.50425 -50.2368
4 4.07325 6.78875 -50.2368
4 4.07325 9.50425 -52.9522
4 5.431 5.431 -54.31
4 5.431 8.1465 -51.5945
4 8.1465 5.431 -51.5945
4 8.1465 8.1465 -54.31
4 6.78875 6.78875 -52.9522
4 6.78875 9.50425 -50.2368
4 9.50425 6.78875 -50.2368
4 9.50425 9.50425 -52.9522
4 10.862 5.431 -54.31
4 10.862 8.1465 -51.5945
4 13.5775 5.431 -51.5945
4 13.5775 8.1465 -54.31
4 12.2197 6.78875 -52.9522
4 12.2197 9.50425 -50.2368
4 14.9352 6.78875 -50.2368
4 14.9352 9.50425 -52.9522
4 16.293 5.431 -54.31
4 16.293 8.1465 -51.5945
4 19.0085 5.431 -51.5945
4 19.0085 8.1465 -54.31
4 17.6507 6.78875 -52.9522
4 17.6507 9.50425 -50.2368
4 20.3663 6.78875 -50.2368
4 20.3663 9.50425 -52.9522
4 21.724 5.431 -54.31
4 21.724 8.1465 -51.5945
4 24.4395 5.431 -51.5945
4 24.4395 8.1465 -54.31
4 23.0817 6.78875 -52.9522
4 23.0817 9.50425 -50.2368
4 25.7973 6.78875 -50.2368
4 25.7973 9.50425 -52.9522
4 27.155 5.431 -54.31
4 27.155 8.1465 -51.5945
4 29.8705 5.431 -51.5945
4 29.8705 8.1465 -54.31
4 28.5128 6.78875 -52.9522
4 28.5128 9.50425 -50.2368
4 31.2282 6.78875 -50.2368
4 31.2282 9.50425 -52.9522
4 32.586 5.431 -54.31
4 32.586 8.1465 -51.5945
4 35.3015 5.431 -51.5945
4 35.3015 8.1465 -54.31
4 33.9438 6.78875 -52.9522
4 33.9438 9.50425 -50.2368
4 36.6593 6.78875 -50.2368
4 36.6593 9.50425 -52.9522
4 38.017 5.431 -54.31
4 38.017 8.1465 -51.5945
4 40.7325 5.431 -51.5945
4 40.7325 8.1465 -54.31
4 39.3747 6.78875 -52.9522
4 39.3747 9.50425 -50.2368
4 42.0902 6.78875 -50.2368
4 42.0902 9.50425 -52.9522
4 43.448 5.431 -54.31
4 43.448 8.1465 -51.5945
4 46.1635 5.431 -51.5945
4 46.1635 8.1465 -54.31
4 44.8058 6.78875 -52.9522
4 44.8058 9.50425 -50.2368
4 47.5213 6.78875 -50.2368
4 47.5213 9.50425 -52.9522
4 48.879 5.431 -54.31
4 48.879 8.1465 -51.5945
4 51.5945 5.431 -51.5945
4 51.5945 8.1465 -54.31
4 50.2368 6.78875 -52.9522
4 50.2368 9.50425 -50.2368
4 52.9522 6.78875 -50.2368
4 52.9522 9.50425 -52.9522
4 0 10.862 -54.31
4 0 13.5775 -51.5945
4 2.7155 10.862 -51.5945
4 2.7155 13.5775 -54.31
4 1.35775 12.2197 -52.9522
4 1.35775 14.9352 -50.2368
4 4.07325 12.2197 -50.2368
4 4.07325 14.9352 -52.9522
4 5.431 10.862 -54.31
4 5.431 13.5775 -51.5945
4 8.1465 10.862 -51.5945
4 8.1465 13.5775 -54.31
4 6.78875 12.2197 -52.9522
4 6.78875 14.9352 -50.2368
4 9.50425 12.2197 -50.2368
4 9.50425 14.9352 -52.9522
4 10.862 10.862 -54.31
4 10.862 13.5775 -51.5945
4 13.5775 10.862 -51.5945
4 13.5775 13.5775 -54.31
4 12.2197 12.2197 -52.9522
4 12.2197 14.9352 -50.2368
4 14.9352 12.2197 -50.2368
4 14.9352 14.9352 -52.9522
4 16.293 10.862 -54.31
4 16.293 13.5775 -51.5945
4 19.0085 10.862 -51.5945
4 19.0085 13.5775 -54.31
4 17.6507 12.2197 -52.9522
4 17.6507 14.9352 -50.2368
4 20.3663 12.2197 -50.2368
4 20.3663 14.9352 -52.9522
4 21.724 10.862 -54.31
4 21.724 13.5775 -51.5945
4 24.4395 10.862 -51.5945
4 24.4395 13.5775 -54.31
4 23.0817 12.2197 -52.9522
4 23.0817 14.9352 -50.2368
4 25.7973 12.2197 -50.2368
4 25.7973 14.9352 -52.9522
4 27.155 10.862 -54.31
4 27.155 13.5775 -51.5945
4 29.8705 10.862 -51.5945
4 29.8705 13.5775 -54.31
4 28.5128 12.2197 -52.9522
4 28.5128 14.9352 -50.2368
4 31.2282 12.2197 -50.2368
4 31.2282 14.9352 -52.9522
4 32.586 10.862 -54.31
4 32.586 13.5775 -51.5945
4 35.3015 10.862 -51.5945
4 35.3015 13.5775 -54.31
4 33.9438 12.2197 -52.9522
4 33.9438 14.9352 -50.2368
4 36.6593 12.2197 -50.2368
4 36.6593 14.9352 -52.9522
4 38.017 10.862 -54.31
4 38.017 13.5775 -51.5945
4 40.7325 10.862 -51.5945
4 40.7325 13.5775 -54.31
4 39.3747 12.2197 -52.9522
4 39.3747 14.9352 -50.2368
4 42.0902 12.2197 -50.2368
4 42.0902 14.9352 -52.9522
4 43.448 10.862 -54.31
4 43.448 13.5775 -51.5945
4 46.1635 10.862 -51.5945
4 46.1635 13.5775 -54.31
4 44.8058 12.2197 -52.9522
4 44.8058 14.9352 -50.2368
4 47.5213 12.2197 -50.2368
4 47.5213 14.9352 -52.9522
4 48.879 10.862 -54.31
4 48.879 13.5775 -51.5945
4 51.5945 10.862 -51.5945
4 51.5945 13.5775 -54.31
4 50.2368 12.2197 -52.9522
4 50.2368 14.9352 -50.2368
4 52.9522 12.2197 -50.2368
4 52.9522 14.9352 -52.9522
4 0 16.293 -54.31
4 0 19.0085 -51.5945
4 2.7155 16.293 -51.5945
4 2.7155 19.0085 -54.31
4 1.35775 17.6507 -52.9522
4 1.35775 20.3663 -50.2368
4 4.07325 17.6507 -50.2368
4 4.07325 20.3663 -52.9522
4 5.431 16.293 -54.31
4 5.431 19.0085 -51.5945
4 8.1465 16.293 -51.5945
4 8.1465 19.0085 -54.31
4 6.78875 17.6507 -52.9522
4 6.78875 20.3663 -50.2368
4 9.50425 17.6507 -50.2368
4 9.50425 20.3663 -52.9522
4 10.862 16.293 -54.31
4 10.862 19.0085 -51.5945
4 13.5775 16.293 -51.5945
4 13.5775 19.0085 -54.31
4 12.2197 17.6507 -52.9522
4 12.2197 20.3663 -50.2368
4 14.9352 17.6507 -50.2368
4 14.9352 20.3663 -52.9522
4 16.293 16.293 -54.31
4 16.293 19.0085 -51.5945
4 19.0085 16.293 -51.5945
4 19.0085 19.0085 -54.31
4 17.6507 17.6507 -52.9522
4 17.6507 20.3663 -50.2368
4 20.3663 17.6507 -50.2368
4 20.3663 20.3663 -52.9522
4 21.724 16.293 -54.31
4 21.724 19.0085 -51.5945
4 24.4395 16.293 -51.5945
4 24.4395 19.0085 -54.31
4 23.0817 17.6507 -52.9522
4 23.0817 20.3663 -50.2368
4 25.7973 17.6507 -50.2368
4 25.7973 20.3663 -52.9522
4 27.155 16.293 -54.31
4 27.155 19.0085 -51.5945
4 29.8705 16.293 -51.5945
4 29.8705 19.0085 -54.31
4 28.5128 17.6507 -52.9522
4 28.5128 20.3663 -50.2368
4 31.2282 17.6507 -50.2368
4 31.2282 20.3663 -52.9522
4 32.586 16.293 -54.31
4 32.586 19.0085 -51.5945
4 35.3015 16.293 -51.5945
4 35.3015 19.0085 -54.31
4 33.9438 17.6507 -52.9522
4 33.9438 20.3663 -50.2368
4 36.6593 17.6507 -50.2368
4 36.6593 20.3663 -52.9522
4 38.017 16.293 -54.31
4 38.017 19.0085 -51.5945
4 40.7325 16.293 -51.5945
4 40.7325 19.0085 -54.31
4 39.3747 17.6507 -52.9522
4 39.3747 20.3663 -50.2368
4 42.0902 17.6507 -50.2368
4 42.0902 20.3663 -52.9522
4 43.448 16.293 -54.31
4 43.448 19.0085 -51.5945
4 46.1635 16.293 -51.5945
4 46.1635 19.0085 -54.31
4 44.8058 17.6507 -52.9522
4 44.8058 20.3663 -50.2368
4 47.5213 17.6507 -50.2368
4 47.5213 20.3663 -52.9522
4 48.879 16.293 -54.31
4 48.879 19.0085 -51.5945
4 51.5945 16.293 -51.5945
4 51.5945 19.0085 -54.31
4 50.2368 17.6507 -52.9522
4 50.2368 20.3663 -50.2368
4 52.9522 17.6507 -50.2368
4 52.9522 20.3663 -52.9522
4 0 21.724 -54.31
4 0 24.4395 -51.5945
4 2.7155 21.724 -51.5945
4 2.7155 24.4395 -54.31
4 1.35775 23.0817 -52.9522
4 1.35775 25.7973 -50.2368
4 4.07325 23.0817 -50.2368
4 4.07325 25.7973 -52.9522
4 5.431 21.724 -54.31
4 5.431 24.4395 -51.5945
4 8.1465 21.724 -51.5945
4 8.1465 24.4395 -54.31
4 6.78875 23.0817 -52.9522
4 6.78875 25.7973 -50.2368
4 9.50425 23.0817 -50.2368
4 9.50425 25.7973 -52.9522
4 10.862 21.724 -54.31
4 10.862 24.4395 -51.5945
4 13.5775 21.724 -51.5945
4 13.5775 24.4395 -54.31
4 12.2197 23.0817 -52.9522
4 12.2197 25.7973 -50.2368
4 14.9352 23.0817 -50.2368
4 14.9352 25.7973 -52.9522
4 16.293 21.724 -54.31
4 16.293 24.4395 -51.5945
4 19.0085 21.724 -51.5945
4 19.0085 24.4395 -54.31
4 17.6507 23.0817 -52.9522
4 17.6507 25.7973 -50.2368
4 20.3663 23.0817 -50.2368
4 20.3663 25.7973 -52.9522
4 21.724 21.724 -54.31
4 21.724 24.4395 -51.5945
4 24.4395 21.724 -51.5945
4 24.4395 24.4395 -54.31
4 23.0817 23.0817 -52.9522
4 23.0817 25.7973 -50.2368
4 25.7973 23.0817 -50.2368
4 25.7973 25.7973 -52.9522
4 27.155 21.724 -54.31
4 27.155 24.4395 -51.5945
4 29.8705 21.724 -51.5945
4 29.8705 24.4395 -54.31
4 28.5128 23.0817 -52.9522
4 28.5128 25.7973 -50.2368
4 31.2282 23.0817 -50.2368
4 31.2282 25.7973 -52.9522
4 32.586 21.724 -54.31
4 32.586 24.4395 -51.5945
4 35.3015 21.724 -51.5945
4 35.3015 24.4395 -54.31
4 33.9438 23.0817 -52.9522
4 33.9438 25.7973 -50.2368
4 36.6593 23.0817 -50.2368
4 36.6593 25.7973 -52.9522
4 38.017 21.724 -54.31
4 38.017 24.4395 -51.5945
4 40.7325 21.724 -51.5945
4 40.7325 24.4395 -54.31
4 39.3747 23.0817 -52.9522
4 39.3747 25.7973 -50.2368
4 42.0902 23.0817 -50.2368
4 42.0902 25.7973 -52.9522
4 43.448 21.724 -54.31
4 43.448 24.4395 -51.5945
4 46.1635 21.724 -51.5945
4 46.1635 24.4395 -54.31
4 44.8058 23.0817 -52.9522
4 44.8058 25.7973 -50.2368
4 47.5213 23.0817 -50.2368
4 47.5213 25.7973 -52.9522
4 48.879 21.724 -54.31
4 48.879 24.4395 -51.5945
4 51.5945 21.724 -51.5945
4 51.5945 24.4395 -54.31
4 50.2368 23.0817 -52.9522
4 50.2368 25.7973 -50.2368
4 52.9522 23.0817 -50.2368
4 52.9522 25.7973 -52.9522
4 0 27.155 -54.31
4 0 29.8705 -51.5945
4 2.7155 27.155 -51.5945
4 2.7155 29.8705 -54.31
4 1.35775 28.5128 -52.9522
4 1.35775 31.2282 -50.2368
4 4.07325 28.5128 -50.2368
4 4.07325 31.2282 -52.9522
4 5.431 27.155 -54.31
4 5.431 29.8705 -51.5945
4 8.1465 27.155 -51.5945
4 8.1465 29.8705 -54.31
4 6.78875 28.5128 -52.9522
4 6.78875 31.2282 -50.2368
4 9.50425 28.5128 -50.2368
4 9.50425 31.2282 -52.9522
4 10.862 27.155 -54.31
4 10.862 29.8705 -51.5945
4 13.5775 27.155 -51.5945
4 13.5775 29.8705 -54.31
4 12.2197 28.5128 -52.9522
4 12.2197 31.2282 -50.2368
4 14.9352 28.5128 -50.2368
4 14.9352 31.2282 -52.9522
4 16.293 27.155 -54.31
4 16.293 29.8705 -51.5945
4 19.0085 27.155 -51.5945
4 19.0085 29.8705 -54.31
4 17.6507 28.5128 -52.9522
4 17.6507 31.2282 -50.2368
4 20.3663 28.5128 -50.2368
4 20.3663 31.2282 -52.9522
4 21.724 27.155 -54.31
4 21.724 29.8705 -51.5945
4 24.4395 27.155 -51.5945
4 24.4395 29.8705 -54.31
4 23.0817 28.5128 -52.9522
4 23.0817 31.2282 -50.2368
4 25.7973 28.5128 -50.2368
4 25.7973 31.2282 -52.9522
4 27.155 27.155 -54.31
4 27.155 29.8705 -51.5945
4 29.8705 27.155 -51.5945
4 29.8705 29.8705 -54.31
4 28.5128 28.5128 -52.9522
4 28.5128 31.2282 -50.2368
4 31.2282 28.5128 -50.2368
4 31.2282 31.2282 -52.9522
4 32.586 27.155 -54.31
4 32.586 29.8705 -51.5945
4 35.3015 27.155 -51.5945
4 35.3015 29.8705 -54.31
4 33.9438 28.5128 -52.9522
4 33.9438 31.2282 -50.2368
4 36.6593 28.5128 -50.2368
4 36.6593 31.2282 -52.9522
4 38.017 27.155 -54.31
4 38.017 29.8705 -51.5945
4 40.7325 27.155 -51.5945
4 40.7325 29.8705 -54.31
4 39.3747 28.5128 -52.9522
4 39.3747 31.2282 -50.2368
4 42.0902 28.5128 -50.2368
4 42.0902 31.2282 -52.9522
4 43.448 27.155 -54.31
4 43.448 29.8705 -51.5945
4 46.1635 27.155 -51.5945
4 46.1635 29.8705 -54.31
4 44.8058 28.5128 -52.9522
4 44.8058 31.2282 -50.2368
4 47.5213 28.5128 -50.2368
4 47.5213 31.2282 -52.9522
4 48.879 27.155 -54.31
4 48.879 29.8705 -51.5945
4 51.5945 27.155 -51.5945
4 51.5945 29.8705 -54.31
4 50.2368 28.5128 -52.9522
4 50.2368 31.2282 -50.2368
4 52.9522 28.5128 -50.2368
4 52.9522 31.2282 -52.9522
4 0 32.586 -54.31
4 0 35.3015 -51.5945
4 2.7155 32.586 -51.5945
4 2.7155 35.3015 -54.31
4 1.35775 33.9438 -52.9522
4 1.35775 36.6593 -50.2368
4 4.07325 33.9438 -50.2368
4 4.07325 36.6593 -52.9522
4 5.431 32.586 -54.31
4 5.431 35.3015 -51.5945
4 8.1465 32.586 -51.5945
4 8.1465 35.3015 -54.31
4 6.78875 33.9438 -52.9522
4 6.78875 36.6593 -50.2368
4 9.50425 33.9438 -50.2368
4 9.50425 36.6593 -52.9522
4 10.862 32.586 -54.31
4 10.862 35.3015 -51.5945
4 13.5775 32.586 -51.5945
4 13.5775 35.3015 -54.31
4 12.2197 33.9438 -52.9522
4 12.2197 36.6593 -50.2368
4 14.9352 33.9438 -50.2368
4 14.9352 36.6593 -52.9522
4 16.293 32.586 -54.31
4 16.293 35.3015 -51.5945
4 19.0085 32.586 -51.5945
4 19.0085 35.3015 -54.31
4 17.6507 33.9438 -52.9522
4 17.6507 36.6593 -50.2368
4 20.3663 33.9438 -50.2368
4 20.3663 36.6593 -52.9522
4 21.724 32.586 -54.31
4 21.724 35.3015 -51.5945
4 24.4395 32.586 -51.5945
4 24.4395 35.3015 -54.31
4 23.0817 33.9438 -52.9522
4 23.0817 36.6593 -50.2368
4 25.7973 33.9438 -50.2368
4 25.7973 36.6593 -52.9522
4 27.155 32.586 -54.31
4 27.155 35.3015 -51.5945
4 29.8705 32.586 -51.5945
4 29.8705 35.3015 -54.31
4 28.5128 33.9438 -52.9522
4 28.5128 36.6593 -50.2368
4 31.2282 33.9438 -50.2368
4 31.2282 36.6593 -52.9522
4 32.586 32.586 -54.31
4 32.586 35.3015 -51.5945
4 35.3015 32.586 -51.5945
4 35.3015 35.3015 -54.31
4 33.9438 33.9438 -52.9522
4 33.9438 36.6593 -50.2368
4 36.6593 33.9438 -50.2368
4 36.6593 36.6593 -52.9522
4 38.017 32.586 -54.31
4 38.017 35.3015 -51.5945
4 40.7325 32.586 -51.5945
4 40.7325 35.3015 -54.31
4 39.3747 33.9438 -52.9522
4 39.3747 36.6593 -50.2368
4 42.0902 33.9438 -50.2368
4 42.0902 36.6593 -52.9522
4 43.448 32.586 -54.31
4 43.448 35.3015 -51.5945
4 46.1635 32.586 -51.5945
4 46.1635 35.3015 -54.31
4 44.8058 33.9438 -52.9522
4 44.8058 36.6593 -50.2368
4 47.5213 33.9438 -50.2368
4 47.5213 36.6593 -52.9522
4 48.879 32.586 -54.31
4 48.879 35.3015 -51.5945
4 51.5945 32.586 -51.5945
4 51.5945 35.3015 -54.31
4 50.2368 33.9438 -52.9522
4 50.2368 36.6593 -50.2368
4 52.9522 33.9438 -50.2368
4 52.9522 36.6593 -52.9522
4 0 38.017 -54.31
4 0 40.7325 -51.5945
4 2.7155 38.017 -51.5945
4 2.7155 40.7325 -54.31
4 1.35775 39.3747 -52.9522
4 1.35775 42.0902 -50.2368
4 4.07325 39.3747 -50.2368
4 4.07325 42.0902 -52.9522
4 5.431 38.017 -54.31
4 5.431 40.7325 -51.5945
4 8.1465 38.017 -51.5945
4 8.1465 40.7325 -54.31
4 6.78875 39.3747 -52.9522
4 6.78875 42.0902 -50.2368
4 9.50425 39.3747 -50.2368
4 9.50425 42.0902 -52.9522
4 10.862 38.017 -54.31
4 10.862 40.7325 -51.5945
4 13.5775 38.017 -51.5945
4 13.5775 40.7325 -54.31
4 12.2197 39.3747 -52.9522
4 12.2197 42.0902 -50.2368
4 14.9352 39.3747 -50.2368
4 14.9352 42.0902 -52.9522
4 16.293 38.017 -54.31
4 16.293 40.7325 -51.5945
4 19.0085 38.017 -51.5945
4 19.0085 40.7325 -54.31
4 17.6507 39.3747 -52.9522
4 17.6507 42.0902 -50.2368
4 20.3663 39.3747 -50.2368
4 20.3663 42.0902 -52.9522
4 21.724 38.017 -54.31
4 21.724 40.7325 -51.5945
4 24.4395 38.017 -51.5945
4 24.4395 40.7325 -54.31
4 23.0817 39.3747 -52.9522
4 23.0817 42.0902 -50.2368
4 25.7973 39.3747 -50.2368
4 25.7973 42.0902 -52.9522
4 27.155 38.017 -54.31
4 27.155 40.7325 -51.5945
4 29.8705 38.017 -51.5945
4 29.8705 40.7325 -54.31
4 28.5128 39.3747 -52.9522
4 28.5128 42.0902 -50.2368
4 31.2282 39.3747 -50.2368
4 31.2282 42.0902 -52.9522
4 32.586 38.017 -54.31
4 32.586 40.7325 -51.5945
4 35.3015 38.017 -51.5945
4 35.3015 40.7325 -54.31
4 33.9438 39.3747 -52.9522
4 33.9438 42.0902 -50.2368
4 36.6593 39.3747 -50.2368
4 36.6593 42.0902 -52.9522
4 38.017 38.017 -54.31
4 38.017 40.7325 -51.5945
4 40.7325 38.017 -51.5945
4 40.7325 40.7325 -54.31
4 39.3747 39.3747 -52.9522
4 39.3747 42.0902 -50.2368
4 42.0902 39.3747 -50.2368
4 42.0902 42.0902 -52.9522
4 43.448 38.017 -54.31
4 43.448 40.7325 -51.5945
4 46.1635 38.017 -51.5945
4 46.1635 40.7325 -54.31
4 44.8058 39.3747 -52.9522
4 44.8058 42.0902 -50.2368
4 47.5213 39.3747 -50.2368
4 47.5213 42.0902 -52.9522
4 48.879 38.017 -54.31
4 48.879 40.7325 -51.5945
4 51.5945 38.017 -51.5945
4 51.5945 40.7325 -54.31
4 50.2368 39.3747 -52.9522
4 50.2368 42.0902 -50.2368
4 52.9522 39.3747 -50.2368
4 52.9522 42.0902 -52.9522
4 0 43.448 -54.31
4 0 46.1635 -51.5945
4 2.7155 43.448 -51.5945
4 2.7155 46.1635 -54.31
4 1.35775 44.8058 -52.9522
4 1.35775 47.5213 -50.2368
4 4.07325 44.8058 -50.2368
4 4.07325 47.5213 -52.9522
4 5.431 43.448 -54.31
4 5.431 46.1635 -51.5945
4 8.1465 43.448 -51.5945
4 8.1465 46.1635 -54.31
4 6.78875 44.8058 -52.9522
4 6.78875 47.5213 -50.2368
4 9.50425 44.8058 -50.2368
4 9.50425 47.5213 -52.9522
4 10.862 43.448 -54.31
4 10.862 46.1635 -51.5945
4 13.5775 43.448 -51.5945
4 13.5775 46.1635 -54.31
4 12.2197 44.8058 -52.9522
4 12.2197 47.5213 -50.2368
4 14.9352 44.8058 -50.2368
4 14.9352 47.5213 -52.9522
4 16.293 43.448 -54.31
4 16.293 46.1635 -51.5945
4 19.0085 43.448 -51.5945
4 19.0085 46.1635 -54.31
4 17.6507 44.8058 -52.9522
4 17.6507 47.5213 -50.2368
4 20.3663 44.8058 -50.2368
4 20.3663 47.5213 -52.9522
4 21.724 43.448 -54.31
4 21.724 46.1635 -51.5945
4 24.4395 43.448 -51.5945
4 24.4395 46.1635 -54.31
4 23.0817 44.8058 -52.9522
4 23.0817 47.5213 -50.2368
4 25.7973 44.8058 -50.2368
4 25.7973 47.5213 -52.9522
4 27.155 43.448 -54.31
4 27.155 46.1635 -51.5945
4 29.8705 43.448 -51.5945
4 29.8705 46.1635 -54.31
4 28.5128 44.8058 -52.9522
4 28.5128 47.5213 -50.2368
4 31.2282 44.8058 -50.2368
4 31.2282 47.5213 -52.9522
4 32.586 43.448 -54.31
4 32.586 46.1635 -51.5945
4 35.3015 43.448 -51.5945
4 35.3015 46.1635 -54.31
4 33.9438 44.8058 -52.9522
4 33.9438 47.5213 -50.2368
4 36.6593 44.8058 -50.2368
4 36.6593 47.5213 -52.9522
4 38.017 43.448 -54.31
4 38.017 46.1635 -51.5945
4 40.7325 43.448 -51.5945
4 40.7325 46.1635 -54.31
4 39.3747 44.8058 -52.9522
4 39.3747 47.5213 -50.2368
4 42.0902 44.8058 -50.2368
4 42.0902 47.5213 -52.9522
4 43.448 43.448 -54.31
4 43.448 46.1635 -51.5945
4 46.1635 43.448 -51.5945
4 46.1635 46.1635 -54.31
4 44.8058 44.8058 -52.9522
4 44.8058 47.5213 -50.2368
4 47.5213 44.8058 -50.2368
4 47.5213 47.5213 -52.9522
4 48.879 43.448 -54.31
4 48.879 46.1635 -51.5945
4 51.5945 43.448 -51.5945
4 51.5945 46.1635 -54.31
4 50.2368 44.8058 -52.9522
4 50.2368 47.5213 -50.2368
4 52.9522 44.8058 -50.2368
4 52.9522 47.5213 -52.9522
4 0 48.879 -54.31
4 0 51.5945 -51.5945
4 2.7155 48.879 -51.5945
4 2.7155 51.5945 -54.31
4 1.35775 50.2368 -52.9522
4 1.35775 52.9522 -50.2368
4 4.07325 50.2368 -50.2368
4 4.07325 52.9522 -52.9522
4 5.431 48.879 -54.31
4 5.431 51.5945 -51.5945
4 8.1465 48.879 -51.5945
4 8.1465 51.5945 -54.31
4 6.78875 50.2368 -52.9522
4 6.78875 52.9522 -50.2368
4 9.50425 50.2368 -50.2368
4 9.50425 52.9522 -52.9522
4 10.862 48.879 -54.31
4 10.862 51.5945 -51.5945
4 13.5775 48.879 -51.5945
4 13.5775 51.5945 -54.31
4 12.2197 50.2368 -52.9522
4 12.2197 52.9522 -50.2368
4 14.9352 50.2368 -50.2368
4 14.9352 52.9522 -52.9522
4 16.293 48.879 -54.31
4 16.293 51.5945 -51.5945
4 19.0085 48.879 -51.5945
4 19.0085 51.5945 -54.31
4 17.6507 50.2368 -52.9522
4 17.6507 52.9522 -50.2368
4 20.3663 50.2368 -50.2368
4 20.3663 52.9522 -52.9522
4 21.724 48.879 -54.31
4 21.724 51.5945 -51.5945
4 24.4395 48.879 -51.5945
4 24.4395 51.5945 -54.31
4 23.0817 50.2368 -52.9522
4 23.0817 52.9522 -50.2368
4 25.7973 50.2368 -50.2368
4 25.7973 52.9522 -52.9522
4 27.155 48.879 -54.31
4 27.155 51.5945 -51.5945
4 29.8705 48.879 -51.5945
4 29.8705 51.5945 -54.31
4 28.5128 50.2368 -52.9522
4 28.5128 52.9522 -50.2368
4 31.2282 50.2368 -50.2368
4 31.2282 52.9522 -52.9522
4 32.586 48.879 -54.31
4 32.586 51.5945 -51.5945
4 35.3015 48.879 -51.5945
4 35.3015 51.5945 -54.31
4 33.9438 50.2368 -52.9522
4 33.9438 52.9522 -50.2368
4 36.6593 50.2368 -50.2368
4 36.6593 52.9522 -52.9522
4 38.017 48.879 -54.31
4 38.017 51.5945 -51.5945
4 40.7325 48.879 -51.5945
4 40.7325 51.5945 -54.31
4 39.3747 50.2368 -52.9522
4 39.3747 52.9522 -50.2368
4 42.0902 50.2368 -50.2368
4 42.0902 52.9522 -52.9522
4 43.448 48.879 -54.31
4 43.448 51.5945 -51.5945
4 46.1635 48.879 -51.5945
4 46.1635 51.5945 -54.31
4 44.8058 50.2368 -52.9522
4 44.8058 52.9522 -50.2368
4 47.5213 50.2368 -50.2368
4 47.5213 52.9522 -52.9522
4 48.879 48.879 -54.31
4 48.879 51.5945 -51.5945
4 51.5945 48.879 -51.5945
4 51.5945 51.5945 -54.31
4 50.2368 50.2368 -52.9522
4 50.2368 52.9522 -50.2368
4 52.9522 50.2368 -50.2368
4 52.9522 52.9522 -52.9522
4 0 0 -48.879
3 2.62843 2.64225 -28.1521
4 2.7155 2.7155 -48.879
4 1.35775 1.35775 -47.5213
3 0.941515 5.98337 -27.9505
3 3.8061 4.0601 -26.831
4 4.07325 4.07325 -47.5213
4 5.431 0 -48.879
3 5.33358 5.32626 -28.0809
3 8.06817 2.60742 -28.1955
4 8.1465 2.7155 -48.879
4 6.78875 1.35775 -47.5213
3 6.50261 6.79186 -26.7359
3 9.34348 4.13728 -26.9583
4 9.50425 4.07325 -47.5213
4 10.862 0 -48.879
3 10.8167 5.32264 -28.2581
3 13.5473 2.68243 -28.218
4 13.5775 2.7155 -48.879
4 12.2197 1.35775 -47.5213
3 12.0216 6.76183 -26.9038
3 14.7814 4.08497 -26.8712
4 14.9352 4.07325 -47.5213
4 16.293 0 -48.879
3 16.2918 5.48269 -28.0712
1 19.0124 2.78351 -28.1077
4 19.0085 2.7155 -48.879
4 17.6507 1.35775 -47.5213
1 17.6443 6.82433 -26.8009
1 20.4206 3.99837 -26.8844
4 20.3663 4.07325 -47.5213
4 21.724 0 -48.879
1 21.7512 5.43744 -28.1819
1 24.4951 2.72396 -28.1177
4 24.4395 2.7155 -48.879
4 23.0817 1.35775 -47.5213
1 22.9868 6.85457 -26.8952
1 25.8117 3.99 -26.7801
4 25.7973 4.07325 -47.5213
4 27.155 0 -48.879
1 27.1352 5.40375 -28.1065
1 29.8424 2.7289 -28.1377
4 29.8705 2.7155 -48.879
4 28.5128 1.35775 -47.5213
1 28.4709 6.79662 -26.8271
1 31.2998 4.12942 -26.8661
4 31.2282 4.07325 -47.5213
4 32.586 0 -48.879
1 32.6737 5.51853 -28.1216
1 35.3674 2.74177 -28.1422
4 35.3015 2.7155 -48.879
4 33.9438 1.35775 -47.5213
1 34.0641 6.81997 -26.802
1 36.7408 4.09789 -26.8955
4 36.6593 4.07325 -47.5213
4 38.017 0 -48.879
1 38.089 5.57631 -28.0437
1 40.7846 2.80525 -28.2166
4 40.7325 2.7155 -48.879
4 39.3747 1.35775 -47.5213
1 39.5535 6.83659 -26.8388
1 42.1414 4.18611 -26.8562
4 42.0902 4.07325 -47.5213
4 43.448 0 -48.879
1 43.5776 5.55887 -28.0577
1 46.2795 2.84054 -28.1776
4 46.1635 2.7155 -48.879
4 44.8058 1.35775 -47.5213
1 45.0212 6.90625 -26.9113
1 47.7354 4.18392 -26.9166
4 47.5213 4.07325 -47.5213
4 48.879 0 -48.879
1 49.0376 5.67684 -28.1619
1 51.7665 2.86345 -28.2204
4 51.5945 2.7155 -48.879
4 50.2368 1.35775 -47.5213
1 50.658 6.87354 -26.9244
1 53.6068 3.81809 -26.9529
4 52.9522 4.07325 -47.5213
4 0 5.431 -48.879
3 2.45151 7.86443 -28.1906
4 2.7155 8.1465 -48.879
4 1.35775 6.78875 -47.5213
3 0.808671 11.238 -27.6941
3 3.71924 9.34682 -26.9141
4 4.07325 9.50425 -47.5213
4 5.431 5.431 -48.879
3 5.24801 10.6977 -28.1064
3 8.01217 8.02268 -28.1184
4 8.1465 8.1465 -48.879
4 6.78875 6.78875 -47.5213
3 6.69035 12.1322 -27.0281
3 9.39707 9.42171 -26.8356
4 9.50425 9.50425 -47.5213
4 10.862 5.431 -48.879
3 10.8982 10.7982 -28.1416
3 13.5375 8.05781 -28.1482
4 13.5775 8.1465 -48.879
4 12.2197 6.78875 -47.5213
3 12.167 12.2115 -26.8854
3 14.8926 9.46279 -26.8637
4 14.9352 9.50425 -47.5213
4 16.293 5.431 -48.879
3 16.2436 10.7943 -28.1026
1 19.0219 8.1645 -28.1478
4 19.0085 8.1465 -48.879
4 17.6507 6.78875 -47.5213
1 17.602 12.2427 -26.8639
1 20.4069 9.48872 -26.7722
4 20.3663 9.50425 -47.5213
4 21.724 5.431 -48.879
1 21.7271 10.8501 -28.0833
1 24.4708 8.09191 -28.1727
4 24.4395 8.1465 -48.879
4 23.0817 6.78875 -47.5213
1 22.9724 12.2961 -26.8041
1 25.7875 9.4827 -26.8795
4 25.7973 9.50425 -47.5213
4 27.155 5.431 -48.879
1 27.1539 10.8033 -28.1869
1 29.8869 8.11556 -28.1193
4 29.8705 8.1465 -48.879
4 28.5128 6.78875 -47.5213
1 28.4755 12.2193 -26.8585
1 31.2409 9.51021 -26.8352
4 31.2282 9.50425 -47.5213
4 32.586 5.431 -48.879
1 32.603 10.9031 -28.1197
1 35.3721 8.26714 -28.1596
4 35.3015 8.1465 -48.879
4 33.9438 6.78875 -47.5213
1 34.0123 12.2277 -26.7781
1 36.7303 9.58989 -26.7675
4 36.6593 9.50425 -47.5213
4 38.017 5.431 -48.879
1 38.0224 10.8953 -28.2239
1 40.8199 8.23112 -28.1905
4 40.7325 8.1465 -48.879
4 39.3747 6.78875 -47.5213
1 39.4466 12.1888 -26.9363
1 42.33 9.43814 -26.8864
4 42.0902 9.50425 -47.5213
4 43.448 5.431 -48.879
1 43.5168 10.9603 -28.121
1 46.3678 8.30004 -28.1395
4 46.1635 8.1465 -48.879
4 44.8058 6.78875 -47.5213
1 44.9795 12.2492 -26.8523
1 47.9088 9.5855 -26.8495
4 47.5213 9.50425 -47.5213
4 48.879 5.431 -48.879
1 49.0322 11.0827 -28.121
1 51.7839 8.35143 -28.2024
4 51.5945 8.1465 -48.879
4 50.2368 6.78875 -47.5213
1 50.7803 12.3014 -27.207
1 53.4831 9.80871 -27.3972
4 52.9522 9.50425 -47.5213
4 0 10.862 -48.879
3 2.31014 13.2035 -28.136
4 2.7155 13.5775 -48.879
4 1.35775 12.2197 -47.5213
3 0.862768 17.7749 -27.0176
3 3.61687 14.7604 -26.9682
4 4.07325 14.9352 -47.5213
4 5.431 10.862 -48.879
3 5.23419 16.1438 -28.0999
3 8.06464 13.5331 -28.1857
4 8.1465 13.5775 -48.879
4 6.78875 12.2197 -47.5213
3 6.56301 17.6035 -26.8452
3 9.35243 14.923 -26.8659
4 9.50425 14.9352 -47.5213
4 10.862 10.862 -48.879
3 10.7755 16.2185 -28.1641
3 13.5294 13.5879 -28.1558
4 13.5775 13.5775 -48.879
4 12.2197 12.2197 -47.5213
3 12.0831 17.5691 -26.9212
3 14.8669 14.9969 -26.9093
4 14.9352 14.9352 -47.5213
4 16.293 10.862 -48.879
3 16.3943 16.3906 -28.0377
1 19.022 13.6031 -28.1217
4 19.0085 13.5775 -48.879
4 17.6507 12.2197 -47.5213
1 17.6457 17.8365 -26.7857
1 20.2775 15.0265 -26.8159
4 20.3663 14.9352 -47.5213
4 21.724 10.862 -48.879
1 21.7714 16.2965 -28.1488
1 24.4915 13.5762 -28.0452
4 24.4395 13.5775 -48.879
4 23.0817 12.2197 -47.5213
1 23.0918 17.7559 -26.8265
1 25.7842 15.0664 -26.7968
4 25.7973 14.9352 -47.5213
4 27.155 10.862 -48.879
1 27.1795 16.3096 -28.2219
1 29.8998 13.7078 -28.1376
4 29.8705 13.5775 -48.879
4 28.5128 12.2197 -47.5213
1 28.4823 17.7812 -26.9375
1 31.2697 15.078 -26.778
4 31.2282 14.9352 -47.5213
4 32.586 10.862 -48.879
1 32.5453 16.3184 -28.1734
1 35.366 13.6256 -28.1349
4 35.3015 13.5775 -48.879
4 33.9438 12.2197 -47.5213
1 34.0225 17.7182 -26.8825
1 36.7212 14.9875 -26.8685
4 36.6593 14.9352 -47.5213
4 38.017 10.862 -48.879
1 38.052 16.3612 -28.1715
1 40.7899 13.6209 -28.1636
4 40.7325 13.5775 -48.879
4 39.3747 12.2197 -47.5213
1 39.4425 17.7262 -26.9073
1 42.1961 14.8394 -26.8838
4 42.0902 14.9352 -47.5213
4 43.448 10.862 -48.879
1 43.5049 16.3132 -28.1669
1 46.2648 13.6574 -28.2267
4 46.1635 13.5775 -48.879
4 44.8058 12.2197 -47.5213
1 45.0277 17.6622 -26.9373
1 47.8271 14.9365 -27.0086
4 47.5213 14.9352 -47.5213
4 48.879 10.862 -48.879
1 49.0804 16.5387 -28.154
1 51.9021 14.0251 -28.2222
4 51.5945 13.5775 -48.879
4 50.2368 12.2197 -47.5213
1 50.6854 17.9401 -27.0574
1 53.3574 15.9341 -27.8752
4 52.9522 14.9352 -47.5213
4 0 16.293 -48.879
3 2.63274 18.8649 -28.1921
4 2.7155 19.0085 -48.879
4 1.35775 17.6507 -47.5213
3 0.793187 22.2284 -27.6728
3 3.83756 20.3706 -26.8613
4 4.07325 20.3663 -47.5213
4 5.431 16.293 -48.879
3 5.28318 21.5889 -28.148
3 7.97114 18.8949 -28.1174
4 8.1465 19.0085 -48.879
4 6.78875 17.6507 -47.5213
3 6.53683 23.0428 -26.9635
3 9.40263 20.296 -26.8641
4 9.50425 20.3663 -47.5213
4 10.862 16.293 -48.879
3 10.7199 21.6496 -28.2233
3 13.4915 19.0373 -28.0892
4 13.5775 19.0085 -48.879
4 12.2197 17.6507 -47.5213
3 12.0419 22.9861 -26.9258
3 14.8195 20.4717 -26.909
4 14.9352 20.3663 -47.5213
4 16.293 16.293 -48.879
3 16.2891 21.7261 -28.1291
1 19.0335 19.0929 -28.1312
4 19.0085 19.0085 -48.879
4 17.6507 17.6507 -47.5213
1 17.6048 23.1529 -26.8752
1 20.3998 20.5041 -26.8037
4 20.3663 20.3663 -47.5213
4 21.724 16.293 -48.879
1 21.7981 21.8258 -28.1024
1 24.4871 19.0466 -28.1736
4 24.4395 19.0085 -48.879
4 23.0817 17.6507 -47.5213
1 23.1958 23.1671 -26.8342
1 25.8079 20.448 -26.9492
4 25.7973 20.3663 -47.5213
4 27.155 16.293 -48.879
1 27.2476 21.7494 -28.169
1 29.9796 19.0567 -28.199
4 29.8705 19.0085 -48.879
4 28.5128 17.6507 -47.5213
1 28.5583 23.1124 -26.8256
1 31.2007 20.492 -26.8401
4 31.2282 20.3663 -47.5213
4 32.586 16.293 -48.879
1 32.6351 21.8036 -28.2088
1 35.397 19.068 -28.2227
4 35.3015 19.0085 -48.879
4 33.9438 17.6507 -47.5213
1 33.9719 23.1391 -26.8115
1 36.723 20.4314 -26.8046
4 36.6593 20.3663 -47.5213
4 38.017 16.293 -48.879
1 38.0694 21.7218 -28.149
1 40.7889 19.1053 -28.1849
4 40.7325 19.0085 -48.879
4 39.3747 17.6507 -47.5213
1 39.4749 23.1349 -26.9528
1 42.2575 20.3968 -26.8512
4 42.0902 20.3663 -47.5213
4 43.448 16.293 -48.879
1 43.4838 21.7535 -28.189
1 46.312 19.1232 -28.1531
4 46.1635 19.0085 -48.879
4 44.8058 17.6507 -47.5213
1 44.9409 23.1328 -26.8747
1 47.768 20.4676 -26.9736
4 47.5213 20.3663 -47.5213
4 48.879 16.293 -48.879
1 49.0742 21.8867 -28.1683
1 52.0241 19.3883 -28.298
4 51.5945 19.0085 -48.879
4 50.2368 17.6507 -47.5213
1 50.5864 23.4517 -27.056
1 53.5084 21.2656 -27.7996
4 52.9522 20.3663 -47.5213
4 0 21.724 -48.879
3 2.42856 24.0881 -28.0983
4 2.7155 24.4395 -48.879
4 1.35775 23.0817 -47.5213
3 0.883761 28.5921 -26.8713
3 3.72924 25.7302 -27.0835
4 4.07325 25.7973 -47.5213
4 5.431 21.724 -48.879
3 5.26451 26.9757 -28.1727
3 8.06634 24.3837 -28.1693
4 8.1465 24.4395 -48.879
4 6.78875 23.0817 -47.5213
3 6.52528 28.4599 -26.9289
3 9.36867 25.7835 -26.9411
4 9.50425 25.7973 -47.5213
4 10.862 21.724 -48.879
3 10.7637 27.1251 -28.1788
3 13.5504 24.4017 -28.0457
4 13.5775 24.4395 -48.879
4 12.2197 23.0817 -47.5213
3 12.1315 28.4461 -26.8584
3 14.9033 25.7743 -26.8114
4 14.9352 25.7973 -47.5213
4 16.293 21.724 -48.879
3 16.3312 27.1827 -28.0821
1 19.0295 24.4663 -28.0933
4 19.0085 24.4395 -48.879
4 17.6507 23.0817 -47.5213
1 17.7171 28.5279 -26.7638
1 20.4898 25.8506 -26.8582
4 20.3663 25.7973 -47.5213
4 21.724 21.724 -48.879
1 21.8182 27.2329 -28.1005
1 24.4748 24.5551 -28.1657
4 24.4395 24.4395 -48.879
4 23.0817 23.0817 -47.5213
1 23.1579 28.57 -26.7987
1 25.8977 25.8693 -26.7565
4 25.7973 25.7973 -47.5213
4 27.155 21.724 -48.879
1 27.2512 27.2716 -28.1239
1 29.9083 24.5674 -28.0389
4 29.8705 24.4395 -48.879
4 28.5128 23.0817 -47.5213
1 28.571 28.5819 -26.6697
1 31.3222 25.8906 -26.71
4 31.2282 25.7973 -47.5213
4 32.586 21.724 -48.879