15349
 Atoms. Timestep: 65000
4 0 0 -54.31
4 0 2.7155 -51.5945
4 2.7155 0 -51.5945
4 2.7155 2.7155 -54.31
4 1.35775 1.35775 -52.9522
4 1.35775 4.07325 -50.2368
4 4.07325 1.35775 -50.2368
4 4.07325 4.07325 -52.9522
4 5.431 0 -54.31
4 5.431 2.7155 -51.5945
4 8.1465 0 -51.5945
4 8.1465 2.7155 -54.31
4 6.78875 1.35775 -52.9522
4 6.78875 4.07325 -50.2368
4 9.50425 1.35775 -50.2368
4 9.50425 4.07325 -52.9522
4 10.862 0 -54.31
4 10.862 2.7155 -51.5945
4 13.5775 0 -51.5945
4 13.5775 2.7155 -54.31
4 12.2197 1.35775 -52.9522
4 12.2197 4.07325 -50.2368
4 14.9352 1.35775 -50.2368
4 14.9352 4.07325 -52.9522
4 16.293 0 -54.31
4 16.293 2.7155 -51.5945
4 19.0085 0 -51.5945
4 19.0085 2.7155 -54.31
4 17.6507 1.35775 -52.9522
4 17.6507 4.07325 -50.2368
4 20.3663 1.35775 -50.2368
4 20.3663 4.07325 -52.9522
4 21.724 0 -54.31
4 21.724 2.7155 -51.5945
4 24.4395 0 -51.5945
4 24.4395 2.7155 -54.31
4 23.0817 1.35775 -52.9522
4 23.0817 4.07325 -50.2368
4 25.7973 1.35775 -50.2368
4 25.7973 4.07325 -52.9522
4 27.155 0 -54.31
4 27.155 2.7155 -51.5945
4 29.8705 0 -51.5945
4 29.8705 2.7155 -54.31
4 28.5128 1.35775 -52.9522
4 28.5128 4.07325 -50.2368
4 31.2282 1.35775 -50.2368
4 31.2282 4.07325 -52.9522
4 32.586 0 -54.31
4 32.586 2.7155 -51.5945
4 35.3015 0 -51.5945
4 35.3015 2.7155 -54.31
4 33.9438 1.35775 -52.9522
4 33.9438 4.07325 -50.2368
4 36.6593 1.35775 -50.2368
4 36.6593 4.07325 -52.9522
4 38.017 0 -54.31
4 38.017 2.7155 -51.5945
4 40.7325 0 -51.5945
4 40.7325 2.7155 -54.31
4 39.3747 1.35775 -52.9522
4 39.3747 4.07325 -50.2368
4 42.0902 1.35775 -50.2368
4 42.0902 4.07325 -52.9522
4 43.448 0 -54.31
4 43.448 2.7155 -51.5945
4 46.1635 0 -51.5945
4 46.1635 2.7155 -54.31
4 44.8058 1.35775 -52.9522
4 44.8058 4.07325 -50.2368
4 47.5213 1.35775 -50.2368
4 47.5213 4.07325 -52.9522
4 48.879 0 -54.31
4 48.879 2.7155 -51.5945
4 51.5945 0 -51.5945
4 51.5945 2.7155 -54.31
4 50.2368 1.35775 -52.9522
4 50.2368 4.07325 -50.2368
4 52.9522 1.35775 -50.2368
4 52.9522 4.07325 -52.9522
4 0 5.431 -54.31
4 0 8.1465 -51.5945
4 2.7155 5.431 -51.5945
4 2.7155 8.1465 -54.31
4 1.35775 6.78875 -52.9522
4 1.35775 9.50425 -50.2368
4 4.07325 6.78875 -50.2368
4 4.07325 9.50425 -52.9522
4 5.431 5.431 -54.31
4 5.431 8.1465 -51.5945
4 8.1465 5.431 -51.5945
4 8.1465 8.1465 -54.31
4 6.78875 6.78875 -52.9522
4 6.78875 9.50425 -50.2368
4 9.50425 6.78875 -50.2368
4 9.50425 9.50425 -52.9522
4 10.862 5.431 -54.31
4 10.862 8.1465 -51.5945
4 13.5775 5.431 -51.5945
4 13.5775 8.1465 -54.31
4 12.2197 6.78875 -52.9522
4 12.2197 9.50425 -50.2368
4 14.9352 6.78875 -50.2368
4 14.9352 9.50425 -52.9522
4 16.293 5.431 -54.31
4 16.293 8.1465 -51.5945
4 19.0085 5.431 -51.5945
4 19.0085 8.1465 -54.31
4 17.6507 6.78875 -52.9522
4 17.6507 9.50425 -50.2368
4 20.3663 6.78875 -50.2368
4 20.3663 9.50425 -52.9522
4 21.724 5.431 -54.31
4 21.724 8.1465 -51.5945
4 24.4395 5.431 -51.5945
4 24.4395 8.1465 -54.31
4 23.0817 6.78875 -52.9522
4 23.0817 9.50425 -50.2368
4 25.7973 6.78875 -50.2368
4 25.7973 9.50425 -52.9522
4 27.155 5.431 -54.31
4 27.155 8.1465 -51.5945
4 29.8705 5.431 -51.5945
4 29.8705 8.1465 -54.31
4 28.5128 6.78875 -52.9522
4 28.5128 9.50425 -50.2368
4 31.2282 6.78875 -50.2368
4 31.2282 9.50425 -52.9522
4 32.586 5.431 -54.31
4 32.586 8.1465 -51.5945
4 35.3015 5.431 -51.5945
4 35.3015 8.1465 -54.31
4 33.9438 6.78875 -52.9522
4 33.9438 9.50425 -50.2368
4 36.6593 6.78875 -50.2368
4 36.6593 9.50425 -52.9522
4 38.017 5.431 -54.31
4 38.017 8.1465 -51.5945
4 40.7325 5.431 -51.5945
4 40.7325 8.1465 -54.31
4 39.3747 6.78875 -52.9522
4 39.3747 9.50425 -50.2368
4 42.0902 6.78875 -50.2368
4 42.0902 9.50425 -52.9522
4 43.448 5.431 -54.31
4 43.448 8.1465 -51.5945
4 46.1635 5.431 -51.5945
4 46.1635 8.1465 -54.31
4 44.8058 6.78875 -52.9522
4 44.8058 9.50425 -50.2368
4 47.5213 6.78875 -50.2368
4 47.5213 9.50425 -52.9522
4 48.879 5.431 -54.31
4 48.879 8.1465 -51.5945
4 51.5945 5.431 -51.5945
4 51.5945 8.1465 -54.31
4 50.2368 6.78875 -52.9522
4 50.2368 9.50425 -50.2368
4 52.9522 6.78875 -50.2368
4 52.9522 9.50425 -52.9522
4 0 10.862 -54.31
4 0 13.5775 -51.5945
4 2.7155 10.862 -51.5945
4 2.7155 13.5775 -54.31
4 1.35775 12.2197 -52.9522
4 1.35775 14.9352 -50.2368
4 4.07325 12.2197 -50.2368
4 4.07325 14.9352 -52.9522
4 5.431 10.862 -54.31
4 5.431 13.5775 -51.5945
4 8.1465 10.862 -51.5945
4 8.1465 13.5775 -54.31
4 6.78875 12.2197 -52.9522
4 6.78875 14.9352 -50.2368
4 9.50425 12.2197 -50.2368
4 9.50425 14.9352 -52.9522
4 10.862 10.862 -54.31
4 10.862 13.5775 -51.5945
4 13.5775 10.862 -51.5945
4 13.5775 13.5775 -54.31
4 12.2197 12.2197 -52.9522
4 12.2197 14.9352 -50.2368
4 14.9352 12.2197 -50.2368
4 14.9352 14.9352 -52.9522
4 16.293 10.862 -54.31
4 16.293 13.5775 -51.5945
4 19.0085 10.862 -51.5945
4 19.0085 13.5775 -54.31
4 17.6507 12.2197 -52.9522
4 17.6507 14.9352 -50.2368
4 20.3663 12.2197 -50.2368
4 20.3663 14.9352 -52.9522
4 21.724 10.862 -54.31
4 21.724 13.5775 -51.5945
4 24.4395 10.862 -51.5945
4 24.4395 13.5775 -54.31
4 23.0817 12.2197 -52.9522
4 23.0817 14.9352 -50.2368
4 25.7973 12.2197 -50.2368
4 25.7973 14.9352 -52.9522
4 27.155 10.862 -54.31
4 27.155 13.5775 -51.5945
4 29.8705 10.862 -51.5945
4 29.8705 13.5775 -54.31
4 28.5128 12.2197 -52.9522
4 28.5128 14.9352 -50.2368
4 31.2282 12.2197 -50.2368
4 31.2282 14.9352 -52.9522
4 32.586 10.862 -54.31
4 32.586 13.5775 -51.5945
4 35.3015 10.862 -51.5945
4 35.3015 13.5775 -54.31
4 33.9438 12.2197 -52.9522
4 33.9438 14.9352 -50.2368
4 36.6593 12.2197 -50.2368
4 36.6593 14.9352 -52.9522
4 38.017 10.862 -54.31
4 38.017 13.5775 -51.5945
4 40.7325 10.862 -51.5945
4 40.7325 13.5775 -54.31
4 39.3747 12.2197 -52.9522
4 39.3747 14.9352 -50.2368
4 42.0902 12.2197 -50.2368
4 42.0902 14.9352 -52.9522
4 43.448 10.862 -54.31
4 43.448 13.5775 -51.5945
4 46.1635 10.862 -51.5945
4 46.1635 13.5775 -54.31
4 44.8058 12.2197 -52.9522
4 44.8058 14.9352 -50.2368
4 47.5213 12.2197 -50.2368
4 47.5213 14.9352 -52.9522
4 48.879 10.862 -54.31
4 48.879 13.5775 -51.5945
4 51.5945 10.862 -51.5945
4 51.5945 13.5775 -54.31
4 50.2368 12.2197 -52.9522
4 50.2368 14.9352 -50.2368
4 52.9522 12.2197 -50.2368
4 52.9522 14.9352 -52.9522
4 0 16.293 -54.31
4 0 19.0085 -51.5945
4 2.7155 16.293 -51.5945
4 2.7155 19.0085 -54.31
4 1.35775 17.6507 -52.9522
4 1.35775 20.3663 -50.2368
4 4.07325 17.6507 -50.2368
4 4.07325 20.3663 -52.9522
4 5.431 16.293 -54.31
4 5.431 19.0085 -51.5945
4 8.1465 16.293 -51.5945
4 8.1465 19.0085 -54.31
4 6.78875 17.6507 -52.9522
4 6.78875 20.3663 -50.2368
4 9.50425 17.6507 -50.2368
4 9.50425 20.3663 -52.9522
4 10.862 16.293 -54.31
4 10.862 19.0085 -51.5945
4 13.5775 16.293 -51.5945
4 13.5775 19.0085 -54.31
4 12.2197 17.6507 -52.9522
4 12.2197 20.3663 -50.2368
4 14.9352 17.6507 -50.2368
4 14.9352 20.3663 -52.9522
4 16.293 16.293 -54.31
4 16.293 19.0085 -51.5945
4 19.0085 16.293 -51.5945
4 19.0085 19.0085 -54.31
4 17.6507 17.6507 -52.9522
4 17.6507 20.3663 -50.2368
4 20.3663 17.6507 -50.2368
4 20.3663 20.3663 -52.9522
4 21.724 16.293 -54.31
4 21.724 19.0085 -51.5945
4 24.4395 16.293 -51.5945
4 24.4395 19.0085 -54.31
4 23.0817 17.6507 -52.9522
4 23.0817 20.3663 -50.2368
4 25.7973 17.6507 -50.2368
4 25.7973 20.3663 -52.9522
4 27.155 16.293 -54.31
4 27.155 19.0085 -51.5945
4 29.8705 16.293 -51.5945
4 29.8705 19.0085 -54.31
4 28.5128 17.6507 -52.9522
4 28.5128 20.3663 -50.2368
4 31.2282 17.6507 -50.2368
4 31.2282 20.3663 -52.9522
4 32.586 16.293 -54.31
4 32.586 19.0085 -51.5945
4 35.3015 16.293 -51.5945
4 35.3015 19.0085 -54.31
4 33.9438 17.6507 -52.9522
4 33.9438 20.3663 -50.2368
4 36.6593 17.6507 -50.2368
4 36.6593 20.3663 -52.9522
4 38.017 16.293 -54.31
4 38.017 19.0085 -51.5945
4 40.7325 16.293 -51.5945
4 40.7325 19.0085 -54.31
4 39.3747 17.6507 -52.9522
4 39.3747 20.3663 -50.2368
4 42.0902 17.6507 -50.2368
4 42.0902 20.3663 -52.9522
4 43.448 16.293 -54.31
4 43.448 19.0085 -51.5945
4 46.1635 16.293 -51.5945
4 46.1635 19.0085 -54.31
4 44.8058 17.6507 -52.9522
4 44.8058 20.3663 -50.2368
4 47.5213 17.6507 -50.2368
4 47.5213 20.3663 -52.9522
4 48.879 16.293 -54.31
4 48.879 19.0085 -51.5945
4 51.5945 16.293 -51.5945
4 51.5945 19.0085 -54.31
4 50.2368 17.6507 -52.9522
4 50.2368 20.3663 -50.2368
4 52.9522 17.6507 -50.2368
4 52.9522 20.3663 -52.9522
4 0 21.724 -54.31
4 0 24.4395 -51.5945
4 2.7155 21.724 -51.5945
4 2.7155 24.4395 -54.31
4 1.35775 23.0817 -52.9522
4 1.35775 25.7973 -50.2368
4 4.07325 23.0817 -50.2368
4 4.07325 25.7973 -52.9522
4 5.431 21.724 -54.31
4 5.431 24.4395 -51.5945
4 8.1465 21.724 -51.5945
4 8.1465 24.4395 -54.31
4 6.78875 23.0817 -52.9522
4 6.78875 25.7973 -50.2368
4 9.50425 23.0817 -50.2368
4 9.50425 25.7973 -52.9522
4 10.862 21.724 -54.31
4 10.862 24.4395 -51.5945
4 13.5775 21.724 -51.5945
4 13.5775 24.4395 -54.31
4 12.2197 23.0817 -52.9522
4 12.2197 25.7973 -50.2368
4 14.9352 23.0817 -50.2368
4 14.9352 25.7973 -52.9522
4 16.293 21.724 -54.31
4 16.293 24.4395 -51.5945
4 19.0085 21.724 -51.5945
4 19.0085 24.4395 -54.31
4 17.6507 23.0817 -52.9522
4 17.6507 25.7973 -50.2368
4 20.3663 23.0817 -50.2368
4 20.3663 25.7973 -52.9522
4 21.724 21.724 -54.31
4 21.724 24.4395 -51.5945
4 24.4395 21.724 -51.5945
4 24.4395 24.4395 -54.31
4 23.0817 23.0817 -52.9522
4 23.0817 25.7973 -50.2368
4 25.7973 23.0817 -50.2368
4 25.7973 25.7973 -52.9522
4 27.155 21.724 -54.31
4 27.155 24.4395 -51.5945
4 29.8705 21.724 -51.5945
4 29.8705 24.4395 -54.31
4 28.5128 23.0817 -52.9522
4 28.5128 25.7973 -50.2368
4 31.2282 23.0817 -50.2368
4 31.2282 25.7973 -52.9522
4 32.586 21.724 -54.31
4 32.586 24.4395 -51.5945
4 35.3015 21.724 -51.5945
4 35.3015 24.4395 -54.31
4 33.9438 23.0817 -52.9522
4 33.9438 25.7973 -50.2368
4 36.6593 23.0817 -50.2368
4 36.6593 25.7973 -52.9522
4 38.017 21.724 -54.31
4 38.017 24.4395 -51.5945
4 40.7325 21.724 -51.5945
4 40.7325 24.4395 -54.31
4 39.3747 23.0817 -52.9522
4 39.3747 25.7973 -50.2368
4 42.0902 23.0817 -50.2368
4 42.0902 25.7973 -52.9522
4 43.448 21.724 -54.31
4 43.448 24.4395 -51.5945
4 46.1635 21.724 -51.5945
4 46.1635 24.4395 -54.31
4 44.8058 23.0817 -52.9522
4 44.8058 25.7973 -50.2368
4 47.5213 23.0817 -50.2368
4 47.5213 25.7973 -52.9522
4 48.879 21.724 -54.31
4 48.879 24.4395 -51.5945
4 51.5945 21.724 -51.5945
4 51.5945 24.4395 -54.31
4 50.2368 23.0817 -52.9522
4 50.2368 25.7973 -50.2368
4 52.9522 23.0817 -50.2368
4 52.9522 25.7973 -52.9522
4 0 27.155 -54.31
4 0 29.8705 -51.5945
4 2.7155 27.155 -51.5945
4 2.7155 29.8705 -54.31
4 1.35775 28.5128 -52.9522
4 1.35775 31.2282 -50.2368
4 4.07325 28.5128 -50.2368
4 4.07325 31.2282 -52.9522
4 5.431 27.155 -54.31
4 5.431 29.8705 -51.5945
4 8.1465 27.155 -51.5945
4 8.1465 29.8705 -54.31
4 6.78875 28.5128 -52.9522
4 6.78875 31.2282 -50.2368
4 9.50425 28.5128 -50.2368
4 9.50425 31.2282 -52.9522
4 10.862 27.155 -54.31
4 10.862 29.8705 -51.5945
4 13.5775 27.155 -51.5945
4 13.5775 29.8705 -54.31
4 12.2197 28.5128 -52.9522
4 12.2197 31.2282 -50.2368
4 14.9352 28.5128 -50.2368
4 14.9352 31.2282 -52.9522
4 16.293 27.155 -54.31
4 16.293 29.8705 -51.5945
4 19.0085 27.155 -51.5945
4 19.0085 29.8705 -54.31
4 17.6507 28.5128 -52.9522
4 17.6507 31.2282 -50.2368
4 20.3663 28.5128 -50.2368
4 20.3663 31.2282 -52.9522
4 21.724 27.155 -54.31
4 21.724 29.8705 -51.5945
4 24.4395 27.155 -51.5945
4 24.4395 29.8705 -54.31
4 23.0817 28.5128 -52.9522
4 23.0817 31.2282 -50.2368
4 25.7973 28.5128 -50.2368
4 25.7973 31.2282 -52.9522
4 27.155 27.155 -54.31
4 27.155 29.8705 -51.5945
4 29.8705 27.155 -51.5945
4 29.8705 29.8705 -54.31
4 28.5128 28.5128 -52.9522
4 28.5128 31.2282 -50.2368
4 31.2282 28.5128 -50.2368
4 31.2282 31.2282 -52.9522
4 32.586 27.155 -54.31
4 32.586 29.8705 -51.5945
4 35.3015 27.155 -51.5945
4 35.3015 29.8705 -54.31
4 33.9438 28.5128 -52.9522
4 33.9438 31.2282 -50.2368
4 36.6593 28.5128 -50.2368
4 36.6593 31.2282 -52.9522
4 38.017 27.155 -54.31
4 38.017 29.8705 -51.5945
4 40.7325 27.155 -51.5945
4 40.7325 29.8705 -54.31
4 39.3747 28.5128 -52.9522
4 39.3747 31.2282 -50.2368
4 42.0902 28.5128 -50.2368
4 42.0902 31.2282 -52.9522
4 43.448 27.155 -54.31
4 43.448 29.8705 -51.5945
4 46.1635 27.155 -51.5945
4 46.1635 29.8705 -54.31
4 44.8058 28.5128 -52.9522
4 44.8058 31.2282 -50.2368
4 47.5213 28.5128 -50.2368
4 47.5213 31.2282 -52.9522
4 48.879 27.155 -54.31
4 48.879 29.8705 -51.5945
4 51.5945 27.155 -51.5945
4 51.5945 29.8705 -54.31
4 50.2368 28.5128 -52.9522
4 50.2368 31.2282 -50.2368
4 52.9522 28.5128 -50.2368
4 52.9522 31.2282 -52.9522
4 0 32.586 -54.31
4 0 35.3015 -51.5945
4 2.7155 32.586 -51.5945
4 2.7155 35.3015 -54.31
4 1.35775 33.9438 -52.9522
4 1.35775 36.6593 -50.2368
4 4.07325 33.9438 -50.2368
4 4.07325 36.6593 -52.9522
4 5.431 32.586 -54.31
4 5.431 35.3015 -51.5945
4 8.1465 32.586 -51.5945
4 8.1465 35.3015 -54.31
4 6.78875 33.9438 -52.9522
4 6.78875 36.6593 -50.2368
4 9.50425 33.9438 -50.2368
4 9.50425 36.6593 -52.9522
4 10.862 32.586 -54.31
4 10.862 35.3015 -51.5945
4 13.5775 32.586 -51.5945
4 13.5775 35.3015 -54.31
4 12.2197 33.9438 -52.9522
4 12.2197 36.6593 -50.2368
4 14.9352 33.9438 -50.2368
4 14.9352 36.6593 -52.9522
4 16.293 32.586 -54.31
4 16.293 35.3015 -51.5945
4 19.0085 32.586 -51.5945
4 19.0085 35.3015 -54.31
4 17.6507 33.9438 -52.9522
4 17.6507 36.6593 -50.2368
4 20.3663 33.9438 -50.2368
4 20.3663 36.6593 -52.9522
4 21.724 32.586 -54.31
4 21.724 35.3015 -51.5945
4 24.4395 32.586 -51.5945
4 24.4395 35.3015 -54.31
4 23.0817 33.9438 -52.9522
4 23.0817 36.6593 -50.2368
4 25.7973 33.9438 -50.2368
4 25.7973 36.6593 -52.9522
4 27.155 32.586 -54.31
4 27.155 35.3015 -51.5945
4 29.8705 32.586 -51.5945
4 29.8705 35.3015 -54.31
4 28.5128 33.9438 -52.9522
4 28.5128 36.6593 -50.2368
4 31.2282 33.9438 -50.2368
4 31.2282 36.6593 -52.9522
4 32.586 32.586 -54.31
4 32.586 35.3015 -51.5945
4 35.3015 32.586 -51.5945
4 35.3015 35.3015 -54.31
4 33.9438 33.9438 -52.9522
4 33.9438 36.6593 -50.2368
4 36.6593 33.9438 -50.2368
4 36.6593 36.6593 -52.9522
4 38.017 32.586 -54.31
4 38.017 35.3015 -51.5945
4 40.7325 32.586 -51.5945
4 40.7325 35.3015 -54.31
4 39.3747 33.9438 -52.9522
4 39.3747 36.6593 -50.2368
4 42.0902 33.9438 -50.2368
4 42.0902 36.6593 -52.9522
4 43.448 32.586 -54.31
4 43.448 35.3015 -51.5945
4 46.1635 32.586 -51.5945
4 46.1635 35.3015 -54.31
4 44.8058 33.9438 -52.9522
4 44.8058 36.6593 -50.2368
4 47.5213 33.9438 -50.2368
4 47.5213 36.6593 -52.9522
4 48.879 32.586 -54.31
4 48.879 35.3015 -51.5945
4 51.5945 32.586 -51.5945
4 51.5945 35.3015 -54.31
4 50.2368 33.9438 -52.9522
4 50.2368 36.6593 -50.2368
4 52.9522 33.9438 -50.2368
4 52.9522 36.6593 -52.9522
4 0 38.017 -54.31
4 0 40.7325 -51.5945
4 2.7155 38.017 -51.5945
4 2.7155 40.7325 -54.31
4 1.35775 39.3747 -52.9522
4 1.35775 42.0902 -50.2368
4 4.07325 39.3747 -50.2368
4 4.07325 42.0902 -52.9522
4 5.431 38.017 -54.31
4 5.431 40.7325 -51.5945
4 8.1465 38.017 -51.5945
4 8.1465 40.7325 -54.31
4 6.78875 39.3747 -52.9522
4 6.78875 42.0902 -50.2368
4 9.50425 39.3747 -50.2368
4 9.50425 42.0902 -52.9522
4 10.862 38.017 -54.31
4 10.862 40.7325 -51.5945
4 13.5775 38.017 -51.5945
4 13.5775 40.7325 -54.31
4 12.2197 39.3747 -52.9522
4 12.2197 42.0902 -50.2368
4 14.9352 39.3747 -50.2368
4 14.9352 42.0902 -52.9522
4 16.293 38.017 -54.31
4 16.293 40.7325 -51.5945
4 19.0085 38.017 -51.5945
4 19.0085 40.7325 -54.31
4 17.6507 39.3747 -52.9522
4 17.6507 42.0902 -50.2368
4 20.3663 39.3747 -50.2368
4 20.3663 42.0902 -52.9522
4 21.724 38.017 -54.31
4 21.724 40.7325 -51.5945
4 24.4395 38.017 -51.5945
4 24.4395 40.7325 -54.31
4 23.0817 39.3747 -52.9522
4 23.0817 42.0902 -50.2368
4 25.7973 39.3747 -50.2368
4 25.7973 42.0902 -52.9522
4 27.155 38.017 -54.31
4 27.155 40.7325 -51.5945
4 29.8705 38.017 -51.5945
4 29.8705 40.7325 -54.31
4 28.5128 39.3747 -52.9522
4 28.5128 42.0902 -50.2368
4 31.2282 39.3747 -50.2368
4 31.2282 42.0902 -52.9522
4 32.586 38.017 -54.31
4 32.586 40.7325 -51.5945
4 35.3015 38.017 -51.5945
4 35.3015 40.7325 -54.31
4 33.9438 39.3747 -52.9522
4 33.9438 42.0902 -50.2368
4 36.6593 39.3747 -50.2368
4 36.6593 42.0902 -52.9522
4 38.017 38.017 -54.31
4 38.017 40.7325 -51.5945
4 40.7325 38.017 -51.5945
4 40.7325 40.7325 -54.31
4 39.3747 39.3747 -52.9522
4 39.3747 42.0902 -50.2368
4 42.0902 39.3747 -50.2368
4 42.0902 42.0902 -52.9522
4 43.448 38.017 -54.31
4 43.448 40.7325 -51.5945
4 46.1635 38.017 -51.5945
4 46.1635 40.7325 -54.31
4 44.8058 39.3747 -52.9522
4 44.8058 42.0902 -50.2368
4 47.5213 39.3747 -50.2368
4 47.5213 42.0902 -52.9522
4 48.879 38.017 -54.31
4 48.879 40.7325 -51.5945
4 51.5945 38.017 -51.5945
4 51.5945 40.7325 -54.31
4 50.2368 39.3747 -52.9522
4 50.2368 42.0902 -50.2368
4 52.9522 39.3747 -50.2368
4 52.9522 42.0902 -52.9522
4 0 43.448 -54.31
4 0 46.1635 -51.5945
4 2.7155 43.448 -51.5945
4 2.7155 46.1635 -54.31
4 1.35775 44.8058 -52.9522
4 1.35775 47.5213 -50.2368
4 4.07325 44.8058 -50.2368
4 4.07325 47.5213 -52.9522
4 5.431 43.448 -54.31
4 5.431 46.1635 -51.5945
4 8.1465 43.448 -51.5945
4 8.1465 46.1635 -54.31
4 6.78875 44.8058 -52.9522
4 6.78875 47.5213 -50.2368
4 9.50425 44.8058 -50.2368
4 9.50425 47.5213 -52.9522
4 10.862 43.448 -54.31
4 10.862 46.1635 -51.5945
4 13.5775 43.448 -51.5945
4 13.5775 46.1635 -54.31
4 12.2197 44.8058 -52.9522
4 12.2197 47.5213 -50.2368
4 14.9352 44.8058 -50.2368
4 14.9352 47.5213 -52.9522
4 16.293 43.448 -54.31
4 16.293 46.1635 -51.5945
4 19.0085 43.448 -51.5945
4 19.0085 46.1635 -54.31
4 17.6507 44.8058 -52.9522
4 17.6507 47.5213 -50.2368
4 20.3663 44.8058 -50.2368
4 20.3663 47.5213 -52.9522
4 21.724 43.448 -54.31
4 21.724 46.1635 -51.5945
4 24.4395 43.448 -51.5945
4 24.4395 46.1635 -54.31
4 23.0817 44.8058 -52.9522
4 23.0817 47.5213 -50.2368
4 25.7973 44.8058 -50.2368
4 25.7973 47.5213 -52.9522
4 27.155 43.448 -54.31
4 27.155 46.1635 -51.5945
4 29.8705 43.448 -51.5945
4 29.8705 46.1635 -54.31
4 28.5128 44.8058 -52.9522
4 28.5128 47.5213 -50.2368
4 31.2282 44.8058 -50.2368
4 31.2282 47.5213 -52.9522
4 32.586 43.448 -54.31
4 32.586 46.1635 -51.5945
4 35.3015 43.448 -51.5945
4 35.3015 46.1635 -54.31
4 33.9438 44.8058 -52.9522
4 33.9438 47.5213 -50.2368
4 36.6593 44.8058 -50.2368
4 36.6593 47.5213 -52.9522
4 38.017 43.448 -54.31
4 38.017 46.1635 -51.5945
4 40.7325 43.448 -51.5945
4 40.7325 46.1635 -54.31
4 39.3747 44.8058 -52.9522
4 39.3747 47.5213 -50.2368
4 42.0902 44.8058 -50.2368
4 42.0902 47.5213 -52.9522
4 43.448 43.448 -54.31
4 43.448 46.1635 -51.5945
4 46.1635 43.448 -51.5945
4 46.1635 46.1635 -54.31
4 44.8058 44.8058 -52.9522
4 44.8058 47.5213 -50.2368
4 47.5213 44.8058 -50.2368
4 47.5213 47.5213 -52.9522
4 48.879 43.448 -54.31
4 48.879 46.1635 -51.5945
4 51.5945 43.448 -51.5945
4 51.5945 46.1635 -54.31
4 50.2368 44.8058 -52.9522
4 50.2368 47.5213 -50.2368
4 52.9522 44.8058 -50.2368
4 52.9522 47.5213 -52.9522
4 0 48.879 -54.31
4 0 51.5945 -51.5945
4 2.7155 48.879 -51.5945
4 2.7155 51.5945 -54.31
4 1.35775 50.2368 -52.9522
4 1.35775 52.9522 -50.2368
4 4.07325 50.2368 -50.2368
4 4.07325 52.9522 -52.9522
4 5.431 48.879 -54.31
4 5.431 51.5945 -51.5945
4 8.1465 48.879 -51.5945
4 8.1465 51.5945 -54.31
4 6.78875 50.2368 -52.9522
4 6.78875 52.9522 -50.2368
4 9.50425 50.2368 -50.2368
4 9.50425 52.9522 -52.9522
4 10.862 48.879 -54.31
4 10.862 51.5945 -51.5945
4 13.5775 48.879 -51.5945
4 13.5775 51.5945 -54.31
4 12.2197 50.2368 -52.9522
4 12.2197 52.9522 -50.2368
4 14.9352 50.2368 -50.2368
4 14.9352 52.9522 -52.9522
4 16.293 48.879 -54.31
4 16.293 51.5945 -51.5945
4 19.0085 48.879 -51.5945
4 19.0085 51.5945 -54.31
4 17.6507 50.2368 -52.9522
4 17.6507 52.9522 -50.2368
4 20.3663 50.2368 -50.2368
4 20.3663 52.9522 -52.9522
4 21.724 48.879 -54.31
4 21.724 51.5945 -51.5945
4 24.4395 48.879 -51.5945
4 24.4395 51.5945 -54.31
4 23.0817 50.2368 -52.9522
4 23.0817 52.9522 -50.2368
4 25.7973 50.2368 -50.2368
4 25.7973 52.9522 -52.9522
4 27.155 48.879 -54.31
4 27.155 51.5945 -51.5945
4 29.8705 48.879 -51.5945
4 29.8705 51.5945 -54.31
4 28.5128 50.2368 -52.9522
4 28.5128 52.9522 -50.2368
4 31.2282 50.2368 -50.2368
4 31.2282 52.9522 -52.9522
4 32.586 48.879 -54.31
4 32.586 51.5945 -51.5945
4 35.3015 48.879 -51.5945
4 35.3015 51.5945 -54.31
4 33.9438 50.2368 -52.9522
4 33.9438 52.9522 -50.2368
4 36.6593 50.2368 -50.2368
4 36.6593 52.9522 -52.9522
4 38.017 48.879 -54.31
4 38.017 51.5945 -51.5945
4 40.7325 48.879 -51.5945
4 40.7325 51.5945 -54.31
4 39.3747 50.2368 -52.9522
4 39.3747 52.9522 -50.2368
4 42.0902 50.2368 -50.2368
4 42.0902 52.9522 -52.9522
4 43.448 48.879 -54.31
4 43.448 51.5945 -51.5945
4 46.1635 48.879 -51.5945
4 46.1635 51.5945 -54.31
4 44.8058 50.2368 -52.9522
4 44.8058 52.9522 -50.2368
4 47.5213 50.2368 -50.2368
4 47.5213 52.9522 -52.9522
4 48.879 48.879 -54.31
4 48.879 51.5945 -51.5945
4 51.5945 48.879 -51.5945
4 51.5945 51.5945 -54.31
4 50.2368 50.2368 -52.9522
4 50.2368 52.9522 -50.2368
4 52.9522 50.2368 -50.2368
4 52.9522 52.9522 -52.9522
4 0 0 -48.879
3 2.66801 2.61356 -38.0908
4 2.7155 2.7155 -48.879
4 1.35775 1.35775 -47.5213
3 1.14345 6.70803 -36.9539
3 3.91191 4.07211 -36.6941
4 4.07325 4.07325 -47.5213
4 5.431 0 -48.879
3 5.37107 5.42251 -38.0761
3 8.04094 2.60566 -38.0436
4 8.1465 2.7155 -48.879
4 6.78875 1.35775 -47.5213
3 6.65317 6.80016 -36.7156
3 9.41274 4.03712 -36.7949
4 9.50425 4.07325 -47.5213
4 10.862 0 -48.879
3 10.8635 5.39978 -38.0751
3 13.5852 2.66236 -38.1601
4 13.5775 2.7155 -48.879
4 12.2197 1.35775 -47.5213
3 12.1071 6.77038 -36.7414
3 14.7262 4.04374 -36.6489
4 14.9352 4.07325 -47.5213
4 16.293 0 -48.879
3 16.2002 5.31433 -38.0681
1 19.002 2.76566 -37.9967
4 19.0085 2.7155 -48.879
4 17.6507 1.35775 -47.5213
1 17.5302 6.70649 -36.6622
1 20.3824 4.12194 -36.6617
4 20.3663 4.07325 -47.5213
4 21.724 0 -48.879
1 21.785 5.45315 -38.0464
1 24.4305 2.73824 -38.0238
4 24.4395 2.7155 -48.879
4 23.0817 1.35775 -47.5213
1 23.0276 6.84803 -36.6366
1 25.7432 4.07372 -36.6706
4 25.7973 4.07325 -47.5213
4 27.155 0 -48.879
1 27.0652 5.36527 -38.0597
1 29.7784 2.77739 -38.1357
4 29.8705 2.7155 -48.879
4 28.5128 1.35775 -47.5213
1 28.4701 6.83335 -36.6253
1 31.123 4.07291 -36.8181
4 31.2282 4.07325 -47.5213
4 32.586 0 -48.879
1 32.5595 5.41754 -38.0276
1 35.2891 2.74972 -38.0983
4 35.3015 2.7155 -48.879
4 33.9438 1.35775 -47.5213
1 33.9186 6.78532 -36.6471
1 36.6739 4.02425 -36.6796
4 36.6593 4.07325 -47.5213
4 38.017 0 -48.879
1 37.9509 5.3978 -38.0071
1 40.6788 2.66293 -38.1172
4 40.7325 2.7155 -48.879
4 39.3747 1.35775 -47.5213
1 39.323 6.79288 -36.6181
1 41.9676 4.10078 -36.6988
4 42.0902 4.07325 -47.5213
4 43.448 0 -48.879
1 43.4275 5.49871 -37.9745
1 46.2639 2.7007 -37.9712
4 46.1635 2.7155 -48.879
4 44.8058 1.35775 -47.5213
1 44.8248 6.89924 -36.7499
1 47.5605 4.09518 -36.5984
4 47.5213 4.07325 -47.5213
4 48.879 0 -48.879
1 48.879 5.37547 -38.0569
1 51.6618 2.80726 -37.9812
4 51.5945 2.7155 -48.879
4 50.2368 1.35775 -47.5213
1 50.2484 6.73165 -36.6874
1 53.0447 4.04452 -36.5362
4 52.9522 4.07325 -47.5213
4 0 5.431 -48.879
3 2.59488 8.09093 -38.1353
4 2.7155 8.1465 -48.879
4 1.35775 6.78875 -47.5213
3 0.98451 12.2877 -36.9968
3 3.83462 9.51639 -36.83
4 4.07325 9.50425 -47.5213
4 5.431 5.431 -48.879
3 5.32249 10.7281 -38.182
3 8.13552 8.09066 -38.0538
4 8.1465 8.1465 -48.879
4 6.78875 6.78875 -47.5213
3 6.64088 12.183 -36.9071
3 9.48152 9.47836 -36.7588
4 9.50425 9.50425 -47.5213
4 10.862 5.431 -48.879
3 10.8623 10.8881 -38.0676
3 13.4898 8.08596 -38.0479
4 13.5775 8.1465 -48.879
4 12.2197 6.78875 -47.5213
3 12.1848 12.2897 -36.6272
3 14.8327 9.46845 -36.7672
4 14.9352 9.50425 -47.5213
4 16.293 5.431 -48.879
3 16.31 10.8053 -37.9961
1 18.9478 8.201 -37.9872
4 19.0085 8.1465 -48.879
4 17.6507 6.78875 -47.5213
1 17.6053 12.263 -36.7717
1 20.3196 9.52412 -36.5848
4 20.3663 9.50425 -47.5213
4 21.724 5.431 -48.879
1 21.6469 10.8082 -38.0251
1 24.5223 8.0533 -38.0191
4 24.4395 8.1465 -48.879
4 23.0817 6.78875 -47.5213
1 22.9849 12.2051 -36.6961
1 25.8249 9.4609 -36.6719
4 25.7973 9.50425 -47.5213
4 27.155 5.431 -48.879
1 27.1288 10.8465 -38.0365
1 29.8823 8.18517 -38.0827
4 29.8705 8.1465 -48.879
4 28.5128 6.78875 -47.5213
1 28.5321 12.1938 -36.6826
1 31.3061 9.59264 -36.7005
4 31.2282 9.50425 -47.5213
4 32.586 5.431 -48.879
1 32.5657 10.7849 -38.1636
1 35.2918 8.15894 -38.0788
4 35.3015 8.1465 -48.879
4 33.9438 6.78875 -47.5213
1 33.8827 12.077 -36.6791
1 36.7251 9.47872 -36.6986
4 36.6593 9.50425 -47.5213
4 38.017 5.431 -48.879
1 38.016 10.9031 -38.1556
1 40.6404 8.17349 -37.9734
4 40.7325 8.1465 -48.879
4 39.3747 6.78875 -47.5213
1 39.425 12.3009 -36.7459
1 42.0412 9.5835 -36.6259
4 42.0902 9.50425 -47.5213
4 43.448 5.431 -48.879
1 43.4741 10.9342 -38.0905
1 46.1968 8.21646 -38.0577
4 46.1635 8.1465 -48.879
4 44.8058 6.78875 -47.5213
1 44.8447 12.2067 -36.6421
1 47.6569 9.47451 -36.6708
4 47.5213 9.50425 -47.5213
4 48.879 5.431 -48.879
1 48.949 10.8589 -38.0262
1 51.6829 8.0251 -38.0226
4 51.5945 8.1465 -48.879
4 50.2368 6.78875 -47.5213
1 50.3608 12.1891 -36.6295
1 53.0323 9.59162 -36.8866
4 52.9522 9.50425 -47.5213
4 0 10.862 -48.879
3 2.60293 13.4699 -38.1841
4 2.7155 13.5775 -48.879
4 1.35775 12.2197 -47.5213
3 0.949475 18.1298 -36.662
3 3.77183 15.0031 -36.8656
4 4.07325 14.9352 -47.5213
4 5.431 10.862 -48.879
3 5.33774 16.2502 -38.0874
3 8.08982 13.5518 -38.0322
4 8.1465 13.5775 -48.879
4 6.78875 12.2197 -47.5213
3 6.67408 17.653 -36.7712
3 9.35254 14.9217 -36.6936
4 9.50425 14.9352 -47.5213
4 10.862 10.862 -48.879
3 10.7452 16.2722 -38.1107
3 13.5339 13.5945 -38.0376
4 13.5775 13.5775 -48.879
4 12.2197 12.2197 -47.5213
3 12.1213 17.5328 -36.7788
3 14.8143 14.9495 -36.7197
4 14.9352 14.9352 -47.5213
4 16.293 10.862 -48.879
3 16.3505 16.282 -37.9454
1 18.9833 13.5721 -38.066
4 19.0085 13.5775 -48.879
4 17.6507 12.2197 -47.5213
1 17.6793 17.6924 -36.6832
1 20.362 14.9473 -36.734
4 20.3663 14.9352 -47.5213
4 21.724 10.862 -48.879
1 21.7093 16.3233 -38.1197
1 24.3336 13.5104 -38.1661
4 24.4395 13.5775 -48.879
4 23.0817 12.2197 -47.5213
1 23.0324 17.6399 -36.6911
1 25.7164 14.9631 -36.8789
4 25.7973 14.9352 -47.5213
4 27.155 10.862 -48.879
1 27.225 16.2922 -38.0877
1 29.9126 13.5535 -38.0951
4 29.8705 13.5775 -48.879
4 28.5128 12.2197 -47.5213
1 28.5422 17.5913 -36.747
1 31.1485 14.9089 -36.6078
4 31.2282 14.9352 -47.5213
4 32.586 10.862 -48.879
1 32.5144 16.2709 -38.0584
1 35.2919 13.4821 -37.9924
4 35.3015 13.5775 -48.879
4 33.9438 12.2197 -47.5213
1 33.8634 17.6074 -36.6749
1 36.5275 14.9601 -36.6577
4 36.6593 14.9352 -47.5213
4 38.017 10.862 -48.879
1 37.9059 16.2654 -38.0514
1 40.7793 13.6254 -38.1005
4 40.7325 13.5775 -48.879
4 39.3747 12.2197 -47.5213
1 39.3356 17.5049 -36.7021
1 42.1525 14.9466 -36.7225
4 42.0902 14.9352 -47.5213
4 43.448 10.862 -48.879
1 43.5492 16.2615 -38.0973
1 46.1937 13.5442 -38.0061
4 46.1635 13.5775 -48.879
4 44.8058 12.2197 -47.5213
1 44.8422 17.5611 -36.6552
1 47.5982 14.9867 -36.7016
4 47.5213 14.9352 -47.5213
4 48.879 10.862 -48.879
1 48.91 16.3957 -38.0684
1 51.5772 13.5767 -38.092
4 51.5945 13.5775 -48.879
4 50.2368 12.2197 -47.5213
1 50.3337 17.6199 -36.608
1 53.0509 14.8499 -36.7384
4 52.9522 14.9352 -47.5213
4 0 16.293 -48.879
3 2.6334 18.926 -38.0259
4 2.7155 19.0085 -48.879
4 1.35775 17.6507 -47.5213
3 1.09387 22.2841 -37.8235
3 3.92604 20.3589 -36.8585
4 4.07325 20.3663 -47.5213
4 5.431 16.293 -48.879
3 5.35725 21.5956 -38.1278
3 8.07583 18.9987 -38.0607
4 8.1465 19.0085 -48.879
4 6.78875 17.6507 -47.5213
3 6.71141 23.0378 -36.7678
3 9.39224 20.3799 -36.7757
4 9.50425 20.3663 -47.5213
4 10.862 16.293 -48.879
3 10.7762 21.7462 -38.0875
3 13.4719 18.975 -38.0882
4 13.5775 19.0085 -48.879
4 12.2197 17.6507 -47.5213
3 12.1227 23.1329 -36.7417
3 14.853 20.3836 -36.6982
4 14.9352 20.3663 -47.5213
4 16.293 16.293 -48.879
3 16.2709 21.6884 -38.1002
1 19.0261 19.0356 -38.0462
4 19.0085 19.0085 -48.879
4 17.6507 17.6507 -47.5213
1 17.6335 22.9957 -36.7746
1 20.331 20.4296 -36.7034
4 20.3663 20.3663 -47.5213
4 21.724 16.293 -48.879
1 21.6953 21.6906 -38.0636
1 24.4361 18.9685 -38.073
4 24.4395 19.0085 -48.879
4 23.0817 17.6507 -47.5213
1 23.0129 23.0367 -36.779
1 25.816 20.4834 -36.809
4 25.7973 20.3663 -47.5213
4 27.155 16.293 -48.879
1 27.2348 21.7638 -38.1335
1 29.8659 19.0191 -38.116
4 29.8705 19.0085 -48.879
4 28.5128 17.6507 -47.5213
1 28.5206 23.0662 -36.6714
1 31.222 20.4298 -36.632
4 31.2282 20.3663 -47.5213
4 32.586 16.293 -48.879
1 32.5628 21.7643 -38.0499
1 35.2143 19.0214 -38.0856
4 35.3015 19.0085 -48.879
4 33.9438 17.6507 -47.5213
1 33.9162 23.0395 -36.6205
1 36.5547 20.3438 -36.6119
4 36.6593 20.3663 -47.5213
4 38.017 16.293 -48.879
1 37.9733 21.6703 -38.0476
1 40.6516 18.9656 -38.1081
4 40.7325 19.0085 -48.879
4 39.3747 17.6507 -47.5213
1 39.4149 23.0018 -36.6807
1 42.0991 20.2077 -36.7613
4 42.0902 20.3663 -47.5213
4 43.448 16.293 -48.879
1 43.4832 21.6868 -38.0796
1 46.1416 18.959 -38.0081
4 46.1635 19.0085 -48.879
4 44.8058 17.6507 -47.5213
1 44.8206 23.0455 -36.7246
1 47.543 20.2761 -36.6636
4 47.5213 20.3663 -47.5213
4 48.879 16.293 -48.879
1 48.8942 21.6345 -38.011
1 51.6618 18.9681 -38.034
4 51.5945 19.0085 -48.879
4 50.2368 17.6507 -47.5213
1 50.3205 22.9957 -36.6903
1 53.1138 20.2412 -36.6971
4 52.9522 20.3663 -47.5213
4 0 21.724 -48.879
3 2.54578 24.2661 -38.091
4 2.7155 24.4395 -48.879
4 1.35775 23.0817 -47.5213
3 1.18853 28.6973 -36.5536
3 3.80286 25.7682 -36.8243
4 4.07325 25.7973 -47.5213
4 5.431 21.724 -48.879
3 5.30832 27.1757 -38.0944
3 8.08472 24.4435 -38.1246
4 8.1465 24.4395 -48.879
4 6.78875 23.0817 -47.5213
3 6.62515 28.5165 -36.8002
3 9.36563 25.8451 -36.798
4 9.50425 25.7973 -47.5213
4 10.862 21.724 -48.879
3 10.7896 27.1435 -38.0505
3 13.5379 24.3865 -38.1005
4 13.5775 24.4395 -48.879
4 12.2197 23.0817 -47.5213
3 12.1307 28.6162 -36.7387
3 14.8466 25.7592 -36.7525
4 14.9352 25.7973 -47.5213
4 16.293 21.724 -48.879
3 16.3234 27.0896 -38.0631
1 18.9037 24.2931 -38.1258
4 19.0085 24.4395 -48.879
4 17.6507 23.0817 -47.5213
1 17.6766 28.5021 -36.846
1 20.3023 25.7126 -36.733
4 20.3663 25.7973 -47.5213
4 21.724 21.724 -48.879
1 21.6493 27.0863 -38.0679
1 24.4613 24.4287 -38.0415
4 24.4395 24.4395 -48.879
4 23.0817 23.0817 -47.5213
1 22.9424 28.4438 -36.6611
1 25.8452 25.8024 -36.6141
4 25.7973 25.7973 -47.5213
4 27.155 21.724 -48.879
1 27.1756 27.1849 -38.0446
1 29.8581 24.4406 -38.0493
4 29.8705 24.4395 -48.879
4 28.5128 23.0817 -47.5213
1 28.4816 28.6074 -36.6811
1 31.2301 25.8247 -36.6665
4 31.2282 25.7973 -47.5213
4 32.586 21.724 -48.879