14051
 Atoms. Timestep: 125000
4 0 0 -54.31
4 0 2.7155 -51.5945
4 2.7155 0 -51.5945
4 2.7155 2.7155 -54.31
4 1.35775 1.35775 -52.9522
4 1.35775 4.07325 -50.2368
4 4.07325 1.35775 -50.2368
4 4.07325 4.07325 -52.9522
4 5.431 0 -54.31
4 5.431 2.7155 -51.5945
4 8.1465 0 -51.5945
4 8.1465 2.7155 -54.31
4 6.78875 1.35775 -52.9522
4 6.78875 4.07325 -50.2368
4 9.50425 1.35775 -50.2368
4 9.50425 4.07325 -52.9522
4 10.862 0 -54.31
4 10.862 2.7155 -51.5945
4 13.5775 0 -51.5945
4 13.5775 2.7155 -54.31
4 12.2197 1.35775 -52.9522
4 12.2197 4.07325 -50.2368
4 14.9352 1.35775 -50.2368
4 14.9352 4.07325 -52.9522
4 16.293 0 -54.31
4 16.293 2.7155 -51.5945
4 19.0085 0 -51.5945
4 19.0085 2.7155 -54.31
4 17.6507 1.35775 -52.9522
4 17.6507 4.07325 -50.2368
4 20.3663 1.35775 -50.2368
4 20.3663 4.07325 -52.9522
4 21.724 0 -54.31
4 21.724 2.7155 -51.5945
4 24.4395 0 -51.5945
4 24.4395 2.7155 -54.31
4 23.0817 1.35775 -52.9522
4 23.0817 4.07325 -50.2368
4 25.7973 1.35775 -50.2368
4 25.7973 4.07325 -52.9522
4 27.155 0 -54.31
4 27.155 2.7155 -51.5945
4 29.8705 0 -51.5945
4 29.8705 2.7155 -54.31
4 28.5128 1.35775 -52.9522
4 28.5128 4.07325 -50.2368
4 31.2282 1.35775 -50.2368
4 31.2282 4.07325 -52.9522
4 32.586 0 -54.31
4 32.586 2.7155 -51.5945
4 35.3015 0 -51.5945
4 35.3015 2.7155 -54.31
4 33.9438 1.35775 -52.9522
4 33.9438 4.07325 -50.2368
4 36.6593 1.35775 -50.2368
4 36.6593 4.07325 -52.9522
4 38.017 0 -54.31
4 38.017 2.7155 -51.5945
4 40.7325 0 -51.5945
4 40.7325 2.7155 -54.31
4 39.3747 1.35775 -52.9522
4 39.3747 4.07325 -50.2368
4 42.0902 1.35775 -50.2368
4 42.0902 4.07325 -52.9522
4 43.448 0 -54.31
4 43.448 2.7155 -51.5945
4 46.1635 0 -51.5945
4 46.1635 2.7155 -54.31
4 44.8058 1.35775 -52.9522
4 44.8058 4.07325 -50.2368
4 47.5213 1.35775 -50.2368
4 47.5213 4.07325 -52.9522
4 48.879 0 -54.31
4 48.879 2.7155 -51.5945
4 51.5945 0 -51.5945
4 51.5945 2.7155 -54.31
4 50.2368 1.35775 -52.9522
4 50.2368 4.07325 -50.2368
4 52.9522 1.35775 -50.2368
4 52.9522 4.07325 -52.9522
4 0 5.431 -54.31
4 0 8.1465 -51.5945
4 2.7155 5.431 -51.5945
4 2.7155 8.1465 -54.31
4 1.35775 6.78875 -52.9522
4 1.35775 9.50425 -50.2368
4 4.07325 6.78875 -50.2368
4 4.07325 9.50425 -52.9522
4 5.431 5.431 -54.31
4 5.431 8.1465 -51.5945
4 8.1465 5.431 -51.5945
4 8.1465 8.1465 -54.31
4 6.78875 6.78875 -52.9522
4 6.78875 9.50425 -50.2368
4 9.50425 6.78875 -50.2368
4 9.50425 9.50425 -52.9522
4 10.862 5.431 -54.31
4 10.862 8.1465 -51.5945
4 13.5775 5.431 -51.5945
4 13.5775 8.1465 -54.31
4 12.2197 6.78875 -52.9522
4 12.2197 9.50425 -50.2368
4 14.9352 6.78875 -50.2368
4 14.9352 9.50425 -52.9522
4 16.293 5.431 -54.31
4 16.293 8.1465 -51.5945
4 19.0085 5.431 -51.5945
4 19.0085 8.1465 -54.31
4 17.6507 6.78875 -52.9522
4 17.6507 9.50425 -50.2368
4 20.3663 6.78875 -50.2368
4 20.3663 9.50425 -52.9522
4 21.724 5.431 -54.31
4 21.724 8.1465 -51.5945
4 24.4395 5.431 -51.5945
4 24.4395 8.1465 -54.31
4 23.0817 6.78875 -52.9522
4 23.0817 9.50425 -50.2368
4 25.7973 6.78875 -50.2368
4 25.7973 9.50425 -52.9522
4 27.155 5.431 -54.31
4 27.155 8.1465 -51.5945
4 29.8705 5.431 -51.5945
4 29.8705 8.1465 -54.31
4 28.5128 6.78875 -52.9522
4 28.5128 9.50425 -50.2368
4 31.2282 6.78875 -50.2368
4 31.2282 9.50425 -52.9522
4 32.586 5.431 -54.31
4 32.586 8.1465 -51.5945
4 35.3015 5.431 -51.5945
4 35.3015 8.1465 -54.31
4 33.9438 6.78875 -52.9522
4 33.9438 9.50425 -50.2368
4 36.6593 6.78875 -50.2368
4 36.6593 9.50425 -52.9522
4 38.017 5.431 -54.31
4 38.017 8.1465 -51.5945
4 40.7325 5.431 -51.5945
4 40.7325 8.1465 -54.31
4 39.3747 6.78875 -52.9522
4 39.3747 9.50425 -50.2368
4 42.0902 6.78875 -50.2368
4 42.0902 9.50425 -52.9522
4 43.448 5.431 -54.31
4 43.448 8.1465 -51.5945
4 46.1635 5.431 -51.5945
4 46.1635 8.1465 -54.31
4 44.8058 6.78875 -52.9522
4 44.8058 9.50425 -50.2368
4 47.5213 6.78875 -50.2368
4 47.5213 9.50425 -52.9522
4 48.879 5.431 -54.31
4 48.879 8.1465 -51.5945
4 51.5945 5.431 -51.5945
4 51.5945 8.1465 -54.31
4 50.2368 6.78875 -52.9522
4 50.2368 9.50425 -50.2368
4 52.9522 6.78875 -50.2368
4 52.9522 9.50425 -52.9522
4 0 10.862 -54.31
4 0 13.5775 -51.5945
4 2.7155 10.862 -51.5945
4 2.7155 13.5775 -54.31
4 1.35775 12.2197 -52.9522
4 1.35775 14.9352 -50.2368
4 4.07325 12.2197 -50.2368
4 4.07325 14.9352 -52.9522
4 5.431 10.862 -54.31
4 5.431 13.5775 -51.5945
4 8.1465 10.862 -51.5945
4 8.1465 13.5775 -54.31
4 6.78875 12.2197 -52.9522
4 6.78875 14.9352 -50.2368
4 9.50425 12.2197 -50.2368
4 9.50425 14.9352 -52.9522
4 10.862 10.862 -54.31
4 10.862 13.5775 -51.5945
4 13.5775 10.862 -51.5945
4 13.5775 13.5775 -54.31
4 12.2197 12.2197 -52.9522
4 12.2197 14.9352 -50.2368
4 14.9352 12.2197 -50.2368
4 14.9352 14.9352 -52.9522
4 16.293 10.862 -54.31
4 16.293 13.5775 -51.5945
4 19.0085 10.862 -51.5945
4 19.0085 13.5775 -54.31
4 17.6507 12.2197 -52.9522
4 17.6507 14.9352 -50.2368
4 20.3663 12.2197 -50.2368
4 20.3663 14.9352 -52.9522
4 21.724 10.862 -54.31
4 21.724 13.5775 -51.5945
4 24.4395 10.862 -51.5945
4 24.4395 13.5775 -54.31
4 23.0817 12.2197 -52.9522
4 23.0817 14.9352 -50.2368
4 25.7973 12.2197 -50.2368
4 25.7973 14.9352 -52.9522
4 27.155 10.862 -54.31
4 27.155 13.5775 -51.5945
4 29.8705 10.862 -51.5945
4 29.8705 13.5775 -54.31
4 28.5128 12.2197 -52.9522
4 28.5128 14.9352 -50.2368
4 31.2282 12.2197 -50.2368
4 31.2282 14.9352 -52.9522
4 32.586 10.862 -54.31
4 32.586 13.5775 -51.5945
4 35.3015 10.862 -51.5945
4 35.3015 13.5775 -54.31
4 33.9438 12.2197 -52.9522
4 33.9438 14.9352 -50.2368
4 36.6593 12.2197 -50.2368
4 36.6593 14.9352 -52.9522
4 38.017 10.862 -54.31
4 38.017 13.5775 -51.5945
4 40.7325 10.862 -51.5945
4 40.7325 13.5775 -54.31
4 39.3747 12.2197 -52.9522
4 39.3747 14.9352 -50.2368
4 42.0902 12.2197 -50.2368
4 42.0902 14.9352 -52.9522
4 43.448 10.862 -54.31
4 43.448 13.5775 -51.5945
4 46.1635 10.862 -51.5945
4 46.1635 13.5775 -54.31
4 44.8058 12.2197 -52.9522
4 44.8058 14.9352 -50.2368
4 47.5213 12.2197 -50.2368
4 47.5213 14.9352 -52.9522
4 48.879 10.862 -54.31
4 48.879 13.5775 -51.5945
4 51.5945 10.862 -51.5945
4 51.5945 13.5775 -54.31
4 50.2368 12.2197 -52.9522
4 50.2368 14.9352 -50.2368
4 52.9522 12.2197 -50.2368
4 52.9522 14.9352 -52.9522
4 0 16.293 -54.31
4 0 19.0085 -51.5945
4 2.7155 16.293 -51.5945
4 2.7155 19.0085 -54.31
4 1.35775 17.6507 -52.9522
4 1.35775 20.3663 -50.2368
4 4.07325 17.6507 -50.2368
4 4.07325 20.3663 -52.9522
4 5.431 16.293 -54.31
4 5.431 19.0085 -51.5945
4 8.1465 16.293 -51.5945
4 8.1465 19.0085 -54.31
4 6.78875 17.6507 -52.9522
4 6.78875 20.3663 -50.2368
4 9.50425 17.6507 -50.2368
4 9.50425 20.3663 -52.9522
4 10.862 16.293 -54.31
4 10.862 19.0085 -51.5945
4 13.5775 16.293 -51.5945
4 13.5775 19.0085 -54.31
4 12.2197 17.6507 -52.9522
4 12.2197 20.3663 -50.2368
4 14.9352 17.6507 -50.2368
4 14.9352 20.3663 -52.9522
4 16.293 16.293 -54.31
4 16.293 19.0085 -51.5945
4 19.0085 16.293 -51.5945
4 19.0085 19.0085 -54.31
4 17.6507 17.6507 -52.9522
4 17.6507 20.3663 -50.2368
4 20.3663 17.6507 -50.2368
4 20.3663 20.3663 -52.9522
4 21.724 16.293 -54.31
4 21.724 19.0085 -51.5945
4 24.4395 16.293 -51.5945
4 24.4395 19.0085 -54.31
4 23.0817 17.6507 -52.9522
4 23.0817 20.3663 -50.2368
4 25.7973 17.6507 -50.2368
4 25.7973 20.3663 -52.9522
4 27.155 16.293 -54.31
4 27.155 19.0085 -51.5945
4 29.8705 16.293 -51.5945
4 29.8705 19.0085 -54.31
4 28.5128 17.6507 -52.9522
4 28.5128 20.3663 -50.2368
4 31.2282 17.6507 -50.2368
4 31.2282 20.3663 -52.9522
4 32.586 16.293 -54.31
4 32.586 19.0085 -51.5945
4 35.3015 16.293 -51.5945
4 35.3015 19.0085 -54.31
4 33.9438 17.6507 -52.9522
4 33.9438 20.3663 -50.2368
4 36.6593 17.6507 -50.2368
4 36.6593 20.3663 -52.9522
4 38.017 16.293 -54.31
4 38.017 19.0085 -51.5945
4 40.7325 16.293 -51.5945
4 40.7325 19.0085 -54.31
4 39.3747 17.6507 -52.9522
4 39.3747 20.3663 -50.2368
4 42.0902 17.6507 -50.2368
4 42.0902 20.3663 -52.9522
4 43.448 16.293 -54.31
4 43.448 19.0085 -51.5945
4 46.1635 16.293 -51.5945
4 46.1635 19.0085 -54.31
4 44.8058 17.6507 -52.9522
4 44.8058 20.3663 -50.2368
4 47.5213 17.6507 -50.2368
4 47.5213 20.3663 -52.9522
4 48.879 16.293 -54.31
4 48.879 19.0085 -51.5945
4 51.5945 16.293 -51.5945
4 51.5945 19.0085 -54.31
4 50.2368 17.6507 -52.9522
4 50.2368 20.3663 -50.2368
4 52.9522 17.6507 -50.2368
4 52.9522 20.3663 -52.9522
4 0 21.724 -54.31
4 0 24.4395 -51.5945
4 2.7155 21.724 -51.5945
4 2.7155 24.4395 -54.31
4 1.35775 23.0817 -52.9522
4 1.35775 25.7973 -50.2368
4 4.07325 23.0817 -50.2368
4 4.07325 25.7973 -52.9522
4 5.431 21.724 -54.31
4 5.431 24.4395 -51.5945
4 8.1465 21.724 -51.5945
4 8.1465 24.4395 -54.31
4 6.78875 23.0817 -52.9522
4 6.78875 25.7973 -50.2368
4 9.50425 23.0817 -50.2368
4 9.50425 25.7973 -52.9522
4 10.862 21.724 -54.31
4 10.862 24.4395 -51.5945
4 13.5775 21.724 -51.5945
4 13.5775 24.4395 -54.31
4 12.2197 23.0817 -52.9522
4 12.2197 25.7973 -50.2368
4 14.9352 23.0817 -50.2368
4 14.9352 25.7973 -52.9522
4 16.293 21.724 -54.31
4 16.293 24.4395 -51.5945
4 19.0085 21.724 -51.5945
4 19.0085 24.4395 -54.31
4 17.6507 23.0817 -52.9522
4 17.6507 25.7973 -50.2368
4 20.3663 23.0817 -50.2368
4 20.3663 25.7973 -52.9522
4 21.724 21.724 -54.31
4 21.724 24.4395 -51.5945
4 24.4395 21.724 -51.5945
4 24.4395 24.4395 -54.31
4 23.0817 23.0817 -52.9522
4 23.0817 25.7973 -50.2368
4 25.7973 23.0817 -50.2368
4 25.7973 25.7973 -52.9522
4 27.155 21.724 -54.31
4 27.155 24.4395 -51.5945
4 29.8705 21.724 -51.5945
4 29.8705 24.4395 -54.31
4 28.5128 23.0817 -52.9522
4 28.5128 25.7973 -50.2368
4 31.2282 23.0817 -50.2368
4 31.2282 25.7973 -52.9522
4 32.586 21.724 -54.31
4 32.586 24.4395 -51.5945
4 35.3015 21.724 -51.5945
4 35.3015 24.4395 -54.31
4 33.9438 23.0817 -52.9522
4 33.9438 25.7973 -50.2368
4 36.6593 23.0817 -50.2368
4 36.6593 25.7973 -52.9522
4 38.017 21.724 -54.31
4 38.017 24.4395 -51.5945
4 40.7325 21.724 -51.5945
4 40.7325 24.4395 -54.31
4 39.3747 23.0817 -52.9522
4 39.3747 25.7973 -50.2368
4 42.0902 23.0817 -50.2368
4 42.0902 25.7973 -52.9522
4 43.448 21.724 -54.31
4 43.448 24.4395 -51.5945
4 46.1635 21.724 -51.5945
4 46.1635 24.4395 -54.31
4 44.8058 23.0817 -52.9522
4 44.8058 25.7973 -50.2368
4 47.5213 23.0817 -50.2368
4 47.5213 25.7973 -52.9522
4 48.879 21.724 -54.31
4 48.879 24.4395 -51.5945
4 51.5945 21.724 -51.5945
4 51.5945 24.4395 -54.31
4 50.2368 23.0817 -52.9522
4 50.2368 25.7973 -50.2368
4 52.9522 23.0817 -50.2368
4 52.9522 25.7973 -52.9522
4 0 27.155 -54.31
4 0 29.8705 -51.5945
4 2.7155 27.155 -51.5945
4 2.7155 29.8705 -54.31
4 1.35775 28.5128 -52.9522
4 1.35775 31.2282 -50.2368
4 4.07325 28.5128 -50.2368
4 4.07325 31.2282 -52.9522
4 5.431 27.155 -54.31
4 5.431 29.8705 -51.5945
4 8.1465 27.155 -51.5945
4 8.1465 29.8705 -54.31
4 6.78875 28.5128 -52.9522
4 6.78875 31.2282 -50.2368
4 9.50425 28.5128 -50.2368
4 9.50425 31.2282 -52.9522
4 10.862 27.155 -54.31
4 10.862 29.8705 -51.5945
4 13.5775 27.155 -51.5945
4 13.5775 29.8705 -54.31
4 12.2197 28.5128 -52.9522
4 12.2197 31.2282 -50.2368
4 14.9352 28.5128 -50.2368
4 14.9352 31.2282 -52.9522
4 16.293 27.155 -54.31
4 16.293 29.8705 -51.5945
4 19.0085 27.155 -51.5945
4 19.0085 29.8705 -54.31
4 17.6507 28.5128 -52.9522
4 17.6507 31.2282 -50.2368
4 20.3663 28.5128 -50.2368
4 20.3663 31.2282 -52.9522
4 21.724 27.155 -54.31
4 21.724 29.8705 -51.5945
4 24.4395 27.155 -51.5945
4 24.4395 29.8705 -54.31
4 23.0817 28.5128 -52.9522
4 23.0817 31.2282 -50.2368
4 25.7973 28.5128 -50.2368
4 25.7973 31.2282 -52.9522
4 27.155 27.155 -54.31
4 27.155 29.8705 -51.5945
4 29.8705 27.155 -51.5945
4 29.8705 29.8705 -54.31
4 28.5128 28.5128 -52.9522
4 28.5128 31.2282 -50.2368
4 31.2282 28.5128 -50.2368
4 31.2282 31.2282 -52.9522
4 32.586 27.155 -54.31
4 32.586 29.8705 -51.5945
4 35.3015 27.155 -51.5945
4 35.3015 29.8705 -54.31
4 33.9438 28.5128 -52.9522
4 33.9438 31.2282 -50.2368
4 36.6593 28.5128 -50.2368
4 36.6593 31.2282 -52.9522
4 38.017 27.155 -54.31
4 38.017 29.8705 -51.5945
4 40.7325 27.155 -51.5945
4 40.7325 29.8705 -54.31
4 39.3747 28.5128 -52.9522
4 39.3747 31.2282 -50.2368
4 42.0902 28.5128 -50.2368
4 42.0902 31.2282 -52.9522
4 43.448 27.155 -54.31
4 43.448 29.8705 -51.5945
4 46.1635 27.155 -51.5945
4 46.1635 29.8705 -54.31
4 44.8058 28.5128 -52.9522
4 44.8058 31.2282 -50.2368
4 47.5213 28.5128 -50.2368
4 47.5213 31.2282 -52.9522
4 48.879 27.155 -54.31
4 48.879 29.8705 -51.5945
4 51.5945 27.155 -51.5945
4 51.5945 29.8705 -54.31
4 50.2368 28.5128 -52.9522
4 50.2368 31.2282 -50.2368
4 52.9522 28.5128 -50.2368
4 52.9522 31.2282 -52.9522
4 0 32.586 -54.31
4 0 35.3015 -51.5945
4 2.7155 32.586 -51.5945
4 2.7155 35.3015 -54.31
4 1.35775 33.9438 -52.9522
4 1.35775 36.6593 -50.2368
4 4.07325 33.9438 -50.2368
4 4.07325 36.6593 -52.9522
4 5.431 32.586 -54.31
4 5.431 35.3015 -51.5945
4 8.1465 32.586 -51.5945
4 8.1465 35.3015 -54.31
4 6.78875 33.9438 -52.9522
4 6.78875 36.6593 -50.2368
4 9.50425 33.9438 -50.2368
4 9.50425 36.6593 -52.9522
4 10.862 32.586 -54.31
4 10.862 35.3015 -51.5945
4 13.5775 32.586 -51.5945
4 13.5775 35.3015 -54.31
4 12.2197 33.9438 -52.9522
4 12.2197 36.6593 -50.2368
4 14.9352 33.9438 -50.2368
4 14.9352 36.6593 -52.9522
4 16.293 32.586 -54.31
4 16.293 35.3015 -51.5945
4 19.0085 32.586 -51.5945
4 19.0085 35.3015 -54.31
4 17.6507 33.9438 -52.9522
4 17.6507 36.6593 -50.2368
4 20.3663 33.9438 -50.2368
4 20.3663 36.6593 -52.9522
4 21.724 32.586 -54.31
4 21.724 35.3015 -51.5945
4 24.4395 32.586 -51.5945
4 24.4395 35.3015 -54.31
4 23.0817 33.9438 -52.9522
4 23.0817 36.6593 -50.2368
4 25.7973 33.9438 -50.2368
4 25.7973 36.6593 -52.9522
4 27.155 32.586 -54.31
4 27.155 35.3015 -51.5945
4 29.8705 32.586 -51.5945
4 29.8705 35.3015 -54.31
4 28.5128 33.9438 -52.9522
4 28.5128 36.6593 -50.2368
4 31.2282 33.9438 -50.2368
4 31.2282 36.6593 -52.9522
4 32.586 32.586 -54.31
4 32.586 35.3015 -51.5945
4 35.3015 32.586 -51.5945
4 35.3015 35.3015 -54.31
4 33.9438 33.9438 -52.9522
4 33.9438 36.6593 -50.2368
4 36.6593 33.9438 -50.2368
4 36.6593 36.6593 -52.9522
4 38.017 32.586 -54.31
4 38.017 35.3015 -51.5945
4 40.7325 32.586 -51.5945
4 40.7325 35.3015 -54.31
4 39.3747 33.9438 -52.9522
4 39.3747 36.6593 -50.2368
4 42.0902 33.9438 -50.2368
4 42.0902 36.6593 -52.9522
4 43.448 32.586 -54.31
4 43.448 35.3015 -51.5945
4 46.1635 32.586 -51.5945
4 46.1635 35.3015 -54.31
4 44.8058 33.9438 -52.9522
4 44.8058 36.6593 -50.2368
4 47.5213 33.9438 -50.2368
4 47.5213 36.6593 -52.9522
4 48.879 32.586 -54.31
4 48.879 35.3015 -51.5945
4 51.5945 32.586 -51.5945
4 51.5945 35.3015 -54.31
4 50.2368 33.9438 -52.9522
4 50.2368 36.6593 -50.2368
4 52.9522 33.9438 -50.2368
4 52.9522 36.6593 -52.9522
4 0 38.017 -54.31
4 0 40.7325 -51.5945
4 2.7155 38.017 -51.5945
4 2.7155 40.7325 -54.31
4 1.35775 39.3747 -52.9522
4 1.35775 42.0902 -50.2368
4 4.07325 39.3747 -50.2368
4 4.07325 42.0902 -52.9522
4 5.431 38.017 -54.31
4 5.431 40.7325 -51.5945
4 8.1465 38.017 -51.5945
4 8.1465 40.7325 -54.31
4 6.78875 39.3747 -52.9522
4 6.78875 42.0902 -50.2368
4 9.50425 39.3747 -50.2368
4 9.50425 42.0902 -52.9522
4 10.862 38.017 -54.31
4 10.862 40.7325 -51.5945
4 13.5775 38.017 -51.5945
4 13.5775 40.7325 -54.31
4 12.2197 39.3747 -52.9522
4 12.2197 42.0902 -50.2368
4 14.9352 39.3747 -50.2368
4 14.9352 42.0902 -52.9522
4 16.293 38.017 -54.31
4 16.293 40.7325 -51.5945
4 19.0085 38.017 -51.5945
4 19.0085 40.7325 -54.31
4 17.6507 39.3747 -52.9522
4 17.6507 42.0902 -50.2368
4 20.3663 39.3747 -50.2368
4 20.3663 42.0902 -52.9522
4 21.724 38.017 -54.31
4 21.724 40.7325 -51.5945
4 24.4395 38.017 -51.5945
4 24.4395 40.7325 -54.31
4 23.0817 39.3747 -52.9522
4 23.0817 42.0902 -50.2368
4 25.7973 39.3747 -50.2368
4 25.7973 42.0902 -52.9522
4 27.155 38.017 -54.31
4 27.155 40.7325 -51.5945
4 29.8705 38.017 -51.5945
4 29.8705 40.7325 -54.31
4 28.5128 39.3747 -52.9522
4 28.5128 42.0902 -50.2368
4 31.2282 39.3747 -50.2368
4 31.2282 42.0902 -52.9522
4 32.586 38.017 -54.31
4 32.586 40.7325 -51.5945
4 35.3015 38.017 -51.5945
4 35.3015 40.7325 -54.31
4 33.9438 39.3747 -52.9522
4 33.9438 42.0902 -50.2368
4 36.6593 39.3747 -50.2368
4 36.6593 42.0902 -52.9522
4 38.017 38.017 -54.31
4 38.017 40.7325 -51.5945
4 40.7325 38.017 -51.5945
4 40.7325 40.7325 -54.31
4 39.3747 39.3747 -52.9522
4 39.3747 42.0902 -50.2368
4 42.0902 39.3747 -50.2368
4 42.0902 42.0902 -52.9522
4 43.448 38.017 -54.31
4 43.448 40.7325 -51.5945
4 46.1635 38.017 -51.5945
4 46.1635 40.7325 -54.31
4 44.8058 39.3747 -52.9522
4 44.8058 42.0902 -50.2368
4 47.5213 39.3747 -50.2368
4 47.5213 42.0902 -52.9522
4 48.879 38.017 -54.31
4 48.879 40.7325 -51.5945
4 51.5945 38.017 -51.5945
4 51.5945 40.7325 -54.31
4 50.2368 39.3747 -52.9522
4 50.2368 42.0902 -50.2368
4 52.9522 39.3747 -50.2368
4 52.9522 42.0902 -52.9522
4 0 43.448 -54.31
4 0 46.1635 -51.5945
4 2.7155 43.448 -51.5945
4 2.7155 46.1635 -54.31
4 1.35775 44.8058 -52.9522
4 1.35775 47.5213 -50.2368
4 4.07325 44.8058 -50.2368
4 4.07325 47.5213 -52.9522
4 5.431 43.448 -54.31
4 5.431 46.1635 -51.5945
4 8.1465 43.448 -51.5945
4 8.1465 46.1635 -54.31
4 6.78875 44.8058 -52.9522
4 6.78875 47.5213 -50.2368
4 9.50425 44.8058 -50.2368
4 9.50425 47.5213 -52.9522
4 10.862 43.448 -54.31
4 10.862 46.1635 -51.5945
4 13.5775 43.448 -51.5945
4 13.5775 46.1635 -54.31
4 12.2197 44.8058 -52.9522
4 12.2197 47.5213 -50.2368
4 14.9352 44.8058 -50.2368
4 14.9352 47.5213 -52.9522
4 16.293 43.448 -54.31
4 16.293 46.1635 -51.5945
4 19.0085 43.448 -51.5945
4 19.0085 46.1635 -54.31
4 17.6507 44.8058 -52.9522
4 17.6507 47.5213 -50.2368
4 20.3663 44.8058 -50.2368
4 20.3663 47.5213 -52.9522
4 21.724 43.448 -54.31
4 21.724 46.1635 -51.5945
4 24.4395 43.448 -51.5945
4 24.4395 46.1635 -54.31
4 23.0817 44.8058 -52.9522
4 23.0817 47.5213 -50.2368
4 25.7973 44.8058 -50.2368
4 25.7973 47.5213 -52.9522
4 27.155 43.448 -54.31
4 27.155 46.1635 -51.5945
4 29.8705 43.448 -51.5945
4 29.8705 46.1635 -54.31
4 28.5128 44.8058 -52.9522
4 28.5128 47.5213 -50.2368
4 31.2282 44.8058 -50.2368
4 31.2282 47.5213 -52.9522
4 32.586 43.448 -54.31
4 32.586 46.1635 -51.5945
4 35.3015 43.448 -51.5945
4 35.3015 46.1635 -54.31
4 33.9438 44.8058 -52.9522
4 33.9438 47.5213 -50.2368
4 36.6593 44.8058 -50.2368
4 36.6593 47.5213 -52.9522
4 38.017 43.448 -54.31
4 38.017 46.1635 -51.5945
4 40.7325 43.448 -51.5945
4 40.7325 46.1635 -54.31
4 39.3747 44.8058 -52.9522
4 39.3747 47.5213 -50.2368
4 42.0902 44.8058 -50.2368
4 42.0902 47.5213 -52.9522
4 43.448 43.448 -54.31
4 43.448 46.1635 -51.5945
4 46.1635 43.448 -51.5945
4 46.1635 46.1635 -54.31
4 44.8058 44.8058 -52.9522
4 44.8058 47.5213 -50.2368
4 47.5213 44.8058 -50.2368
4 47.5213 47.5213 -52.9522
4 48.879 43.448 -54.31
4 48.879 46.1635 -51.5945
4 51.5945 43.448 -51.5945
4 51.5945 46.1635 -54.31
4 50.2368 44.8058 -52.9522
4 50.2368 47.5213 -50.2368
4 52.9522 44.8058 -50.2368
4 52.9522 47.5213 -52.9522
4 0 48.879 -54.31
4 0 51.5945 -51.5945
4 2.7155 48.879 -51.5945
4 2.7155 51.5945 -54.31
4 1.35775 50.2368 -52.9522
4 1.35775 52.9522 -50.2368
4 4.07325 50.2368 -50.2368
4 4.07325 52.9522 -52.9522
4 5.431 48.879 -54.31
4 5.431 51.5945 -51.5945
4 8.1465 48.879 -51.5945
4 8.1465 51.5945 -54.31
4 6.78875 50.2368 -52.9522
4 6.78875 52.9522 -50.2368
4 9.50425 50.2368 -50.2368
4 9.50425 52.9522 -52.9522
4 10.862 48.879 -54.31
4 10.862 51.5945 -51.5945
4 13.5775 48.879 -51.5945
4 13.5775 51.5945 -54.31
4 12.2197 50.2368 -52.9522
4 12.2197 52.9522 -50.2368
4 14.9352 50.2368 -50.2368
4 14.9352 52.9522 -52.9522
4 16.293 48.879 -54.31
4 16.293 51.5945 -51.5945
4 19.0085 48.879 -51.5945
4 19.0085 51.5945 -54.31
4 17.6507 50.2368 -52.9522
4 17.6507 52.9522 -50.2368
4 20.3663 50.2368 -50.2368
4 20.3663 52.9522 -52.9522
4 21.724 48.879 -54.31
4 21.724 51.5945 -51.5945
4 24.4395 48.879 -51.5945
4 24.4395 51.5945 -54.31
4 23.0817 50.2368 -52.9522
4 23.0817 52.9522 -50.2368
4 25.7973 50.2368 -50.2368
4 25.7973 52.9522 -52.9522
4 27.155 48.879 -54.31
4 27.155 51.5945 -51.5945
4 29.8705 48.879 -51.5945
4 29.8705 51.5945 -54.31
4 28.5128 50.2368 -52.9522
4 28.5128 52.9522 -50.2368
4 31.2282 50.2368 -50.2368
4 31.2282 52.9522 -52.9522
4 32.586 48.879 -54.31
4 32.586 51.5945 -51.5945
4 35.3015 48.879 -51.5945
4 35.3015 51.5945 -54.31
4 33.9438 50.2368 -52.9522
4 33.9438 52.9522 -50.2368
4 36.6593 50.2368 -50.2368
4 36.6593 52.9522 -52.9522
4 38.017 48.879 -54.31
4 38.017 51.5945 -51.5945
4 40.7325 48.879 -51.5945
4 40.7325 51.5945 -54.31
4 39.3747 50.2368 -52.9522
4 39.3747 52.9522 -50.2368
4 42.0902 50.2368 -50.2368
4 42.0902 52.9522 -52.9522
4 43.448 48.879 -54.31
4 43.448 51.5945 -51.5945
4 46.1635 48.879 -51.5945
4 46.1635 51.5945 -54.31
4 44.8058 50.2368 -52.9522
4 44.8058 52.9522 -50.2368
4 47.5213 50.2368 -50.2368
4 47.5213 52.9522 -52.9522
4 48.879 48.879 -54.31
4 48.879 51.5945 -51.5945
4 51.5945 48.879 -51.5945
4 51.5945 51.5945 -54.31
4 50.2368 50.2368 -52.9522
4 50.2368 52.9522 -50.2368
4 52.9522 50.2368 -50.2368
4 52.9522 52.9522 -52.9522
4 0 0 -48.879
3 2.63538 2.60128 -23.1261
4 2.7155 2.7155 -48.879
4 1.35775 1.35775 -47.5213
3 1.18207 5.89873 -22.4824
3 4.02339 3.96422 -21.8813
4 4.07325 4.07325 -47.5213
4 5.431 0 -48.879
3 5.40369 5.3966 -23.14
3 8.1253 2.69382 -23.0749
4 8.1465 2.7155 -48.879
4 6.78875 1.35775 -47.5213
3 6.70855 6.69771 -21.7316
3 9.40732 4.01094 -21.6043
4 9.50425 4.07325 -47.5213
4 10.862 0 -48.879
3 10.7608 5.37227 -22.9963
3 13.6141 2.66652 -23.0689
4 13.5775 2.7155 -48.879
4 12.2197 1.35775 -47.5213
3 12.1588 6.8385 -21.6993
3 14.9061 4.0927 -21.7422
4 14.9352 4.07325 -47.5213
4 16.293 0 -48.879
3 16.2772 5.43556 -23.063
1 19.0572 2.67072 -23.0341
4 19.0085 2.7155 -48.879
4 17.6507 1.35775 -47.5213
1 17.7486 6.77708 -21.7481
1 20.3971 4.12682 -21.7032
4 20.3663 4.07325 -47.5213
4 21.724 0 -48.879
1 21.7964 5.44503 -23.0269
1 24.4963 2.74182 -23.17
4 24.4395 2.7155 -48.879
4 23.0817 1.35775 -47.5213
1 23.1228 6.82224 -21.6401
1 25.8737 4.0796 -21.8133
4 25.7973 4.07325 -47.5213
4 27.155 0 -48.879
1 27.2593 5.51126 -23.1529
1 29.9839 2.77333 -23.1303
4 29.8705 2.7155 -48.879
4 28.5128 1.35775 -47.5213
1 28.622 6.84286 -21.8735
1 31.3672 4.13977 -21.806
4 31.2282 4.07325 -47.5213
4 32.586 0 -48.879
1 32.6897 5.5283 -23.1245
1 35.4457 2.85536 -23.1376
4 35.3015 2.7155 -48.879
4 33.9438 1.35775 -47.5213
1 34.118 6.78447 -21.7718
1 36.8041 4.12242 -21.7755
4 36.6593 4.07325 -47.5213
4 38.017 0 -48.879
1 38.0674 5.46834 -23.108
1 40.8765 2.87958 -23.0803
4 40.7325 2.7155 -48.879
4 39.3747 1.35775 -47.5213
1 39.4976 6.77752 -21.8143
1 42.3402 4.17333 -21.7391
4 42.0902 4.07325 -47.5213
4 43.448 0 -48.879
1 43.5741 5.59266 -23.1147
1 46.2614 2.80655 -23.0711
4 46.1635 2.7155 -48.879
4 44.8058 1.35775 -47.5213
1 45.0085 6.94055 -21.8785
1 47.7315 4.21262 -21.9176
4 47.5213 4.07325 -47.5213
4 48.879 0 -48.879
1 49.0052 5.62512 -23.1572
1 51.7226 2.77367 -23.1548
4 51.5945 2.7155 -48.879
4 50.2368 1.35775 -47.5213
1 50.6654 7.08563 -22.2897
1 53.3811 3.9819 -22.0478
4 52.9522 4.07325 -47.5213
4 0 5.431 -48.879
3 2.4708 7.84491 -23.1207
4 2.7155 8.1465 -48.879
4 1.35775 6.78875 -47.5213
3 1.19055 11.3292 -22.529
3 3.88369 9.17168 -21.7569
4 4.07325 9.50425 -47.5213
4 5.431 5.431 -48.879
3 5.25195 10.7277 -23.0179
3 8.12833 8.09076 -22.9884
4 8.1465 8.1465 -48.879
4 6.78875 6.78875 -47.5213
3 6.63531 12.1523 -21.7917
3 9.49842 9.5929 -21.828
4 9.50425 9.50425 -47.5213
4 10.862 5.431 -48.879
3 10.8385 10.888 -23.1186
3 13.567 8.17254 -23.0541
4 13.5775 8.1465 -48.879
4 12.2197 6.78875 -47.5213
3 12.2726 12.2508 -21.7244
3 14.9716 9.49002 -21.7607
4 14.9352 9.50425 -47.5213
4 16.293 5.431 -48.879
3 16.3089 10.8667 -23.0379
1 19.0011 8.14421 -23.0605
4 19.0085 8.1465 -48.879
4 17.6507 6.78875 -47.5213
1 17.5605 12.2173 -21.676
1 20.3503 9.5583 -21.6943
4 20.3663 9.50425 -47.5213
4 21.724 5.431 -48.879
1 21.7616 10.9186 -22.983
1 24.4836 8.12924 -23.1129
4 24.4395 8.1465 -48.879
4 23.0817 6.78875 -47.5213
1 23.1534 12.2293 -21.7048
1 25.8503 9.47811 -21.7449
4 25.7973 9.50425 -47.5213
4 27.155 5.431 -48.879
1 27.1417 10.8007 -23.1813
1 29.9864 8.24145 -23.181
4 29.8705 8.1465 -48.879
4 28.5128 6.78875 -47.5213
1 28.4254 12.3137 -21.867
1 31.3163 9.59961 -21.8695
4 31.2282 9.50425 -47.5213
4 32.586 5.431 -48.879
1 32.6836 10.8492 -23.181
1 35.3706 8.19388 -23.1684
4 35.3015 8.1465 -48.879
4 33.9438 6.78875 -47.5213
1 34.0096 12.2493 -21.7843
1 36.7726 9.53564 -21.7632
4 36.6593 9.50425 -47.5213
4 38.017 5.431 -48.879
1 37.9875 10.8434 -23.1332
1 40.7965 8.18748 -23.0919
4 40.7325 8.1465 -48.879
4 39.3747 6.78875 -47.5213
1 39.4796 12.107 -21.8572
1 42.2952 9.4833 -21.8792
4 42.0902 9.50425 -47.5213
4 43.448 5.431 -48.879
1 43.5136 10.9463 -23.1648
1 46.3496 8.293 -23.118
4 46.1635 8.1465 -48.879
4 44.8058 6.78875 -47.5213
1 45.0458 12.1824 -21.8932
1 47.8674 9.55042 -21.9037
4 47.5213 9.50425 -47.5213
4 48.879 5.431 -48.879
1 49.1394 11.0906 -23.0655
1 52.1411 8.67042 -23.3251
4 51.5945 8.1465 -48.879
4 50.2368 6.78875 -47.5213
1 50.7093 12.4514 -22.0313
1 53.558 10.5568 -22.6962
4 52.9522 9.50425 -47.5213
4 0 10.862 -48.879
3 2.52956 13.4182 -23.1148
4 2.7155 13.5775 -48.879
4 1.35775 12.2197 -47.5213
3 1.21391 17.9113 -21.3562
3 3.77296 14.8789 -21.6878
4 4.07325 14.9352 -47.5213
4 5.431 10.862 -48.879
3 5.26371 16.1087 -23.0926
3 8.09415 13.5569 -23.084
4 8.1465 13.5775 -48.879
4 6.78875 12.2197 -47.5213
3 6.66033 17.5381 -21.7603
3 9.3774 14.9297 -21.7462
4 9.50425 14.9352 -47.5213
4 10.862 10.862 -48.879
3 10.7848 16.1987 -23.152
3 13.5978 13.6446 -23.0749
4 13.5775 13.5775 -48.879
4 12.2197 12.2197 -47.5213
3 12.1669 17.6442 -21.7983
3 14.9485 14.9947 -21.7911
4 14.9352 14.9352 -47.5213
4 16.293 10.862 -48.879
3 16.3124 16.3549 -23.071
1 19.0093 13.5478 -23.0116
4 19.0085 13.5775 -48.879
4 17.6507 12.2197 -47.5213
1 17.7523 17.7216 -21.7075
1 20.3885 14.9145 -21.7342
4 20.3663 14.9352 -47.5213
4 21.724 10.862 -48.879
1 21.7365 16.2584 -23.0626
1 24.4274 13.611 -23.0687
4 24.4395 13.5775 -48.879
4 23.0817 12.2197 -47.5213
1 23.0766 17.7101 -21.708
1 25.8269 15.0178 -21.7641
4 25.7973 14.9352 -47.5213
4 27.155 10.862 -48.879
1 27.1882 16.3774 -23.1665
1 29.8974 13.6261 -23.1409
4 29.8705 13.5775 -48.879
4 28.5128 12.2197 -47.5213
1 28.5579 17.7543 -21.9535
1 31.2743 14.9368 -21.8314
4 31.2282 14.9352 -47.5213
4 32.586 10.862 -48.879
1 32.6211 16.3527 -23.0969
1 35.349 13.612 -23.1776
4 35.3015 13.5775 -48.879
4 33.9438 12.2197 -47.5213
1 34.1162 17.6747 -21.8658
1 36.7249 14.9511 -21.8907
4 36.6593 14.9352 -47.5213
4 38.017 10.862 -48.879
1 38.0779 16.3237 -23.1772
1 40.8661 13.6252 -23.0792
4 40.7325 13.5775 -48.879
4 39.3747 12.2197 -47.5213
1 39.6077 17.6043 -22.0007
1 42.3517 14.9868 -21.8458
4 42.0902 14.9352 -47.5213
4 43.448 10.862 -48.879
1 43.6391 16.4659 -23.067
1 46.251 13.6538 -23.1607
4 46.1635 13.5775 -48.879
4 44.8058 12.2197 -47.5213
1 45.0354 17.6706 -21.7219
1 47.7853 14.933 -22.0206
4 47.5213 14.9352 -47.5213
4 48.879 10.862 -48.879
1 49.0584 16.4852 -23.1272
1 52.0098 14.0167 -23.2243
4 51.5945 13.5775 -48.879
4 50.2368 12.2197 -47.5213
1 50.6203 17.8834 -22.0427
1 53.404 15.9389 -22.7942
4 52.9522 14.9352 -47.5213
4 0 16.293 -48.879
3 2.63691 18.8675 -23.0549
4 2.7155 19.0085 -48.879
4 1.35775 17.6507 -47.5213
3 1.29225 22.2183 -22.5463
3 4.07872 20.1628 -21.78
4 4.07325 20.3663 -47.5213
4 5.431 16.293 -48.879
3 5.38816 21.6261 -23.0265
3 8.10425 18.9577 -23.1158
4 8.1465 19.0085 -48.879
4 6.78875 17.6507 -47.5213
3 6.73672 23.0284 -21.7415
3 9.50193 20.404 -21.7933
4 9.50425 20.3663 -47.5213
4 10.862 16.293 -48.879
3 10.9168 21.6964 -23.1827
3 13.5855 19.0243 -23.055
4 13.5775 19.0085 -48.879
4 12.2197 17.6507 -47.5213
3 12.1839 23.076 -21.8086
3 14.9599 20.445 -21.7358
4 14.9352 20.3663 -47.5213
4 16.293 16.293 -48.879
3 16.3287 21.8325 -23.0362
1 19.0381 19.0837 -23.0676
4 19.0085 19.0085 -48.879
4 17.6507 17.6507 -47.5213
1 17.642 23.2722 -21.6885
1 20.3984 20.5143 -21.7746
4 20.3663 20.3663 -47.5213
4 21.724 16.293 -48.879
1 21.7898 21.8281 -23.0637
1 24.4773 19.0595 -23.1007
4 24.4395 19.0085 -48.879
4 23.0817 17.6507 -47.5213
1 23.1313 23.2688 -21.7988
1 25.8366 20.4521 -21.8463
4 25.7973 20.3663 -47.5213
4 27.155 16.293 -48.879
1 27.2202 21.8208 -23.1399
1 29.9892 19.0987 -23.1136
4 29.8705 19.0085 -48.879
4 28.5128 17.6507 -47.5213
1 28.5912 23.1726 -21.6921
1 31.3122 20.4407 -21.7562
4 31.2282 20.3663 -47.5213
4 32.586 16.293 -48.879
1 32.6862 21.8296 -23.0886
1 35.3463 19.0771 -23.1798
4 35.3015 19.0085 -48.879
4 33.9438 17.6507 -47.5213
1 34.0587 23.0803 -21.724
1 36.8012 20.3679 -21.8274
4 36.6593 20.3663 -47.5213
4 38.017 16.293 -48.879
1 38.0645 21.7473 -23.1487
1 40.7988 19.0669 -23.2108
4 40.7325 19.0085 -48.879
4 39.3747 17.6507 -47.5213
1 39.4757 23.1035 -21.8095
1 42.147 20.3689 -21.9202
4 42.0902 20.3663 -47.5213
4 43.448 16.293 -48.879
1 43.5024 21.7487 -23.2414
1 46.2199 19.0759 -23.1129
4 46.1635 19.0085 -48.879
4 44.8058 17.6507 -47.5213
1 44.9838 23.0335 -21.9259
1 47.7372 20.2666 -21.8888
4 47.5213 20.3663 -47.5213
4 48.879 16.293 -48.879
1 49.0662 21.7934 -23.0336
1 51.8936 19.3716 -23.3046
4 51.5945 19.0085 -48.879
4 50.2368 17.6507 -47.5213
1 50.6478 23.3831 -22.0645
1 53.2696 21.2968 -22.7577
4 52.9522 20.3663 -47.5213
4 0 21.724 -48.879
3 2.57046 24.314 -23.0414
4 2.7155 24.4395 -48.879
4 1.35775 23.0817 -47.5213
3 1.24865 28.9282 -21.4382
3 4.06768 25.6784 -21.7412
4 4.07325 25.7973 -47.5213
4 5.431 21.724 -48.879
3 5.42606 27.1389 -23.1326
3 8.12025 24.3968 -23.1135
4 8.1465 24.4395 -48.879
4 6.78875 23.0817 -47.5213
3 6.72828 28.4997 -21.7771
3 9.44877 25.7674 -21.7338
4 9.50425 25.7973 -47.5213
4 10.862 21.724 -48.879
3 10.8398 27.1227 -23.0434
3 13.5641 24.4237 -23.1058
4 13.5775 24.4395 -48.879
4 12.2197 23.0817 -47.5213
3 12.1693 28.523 -21.7413
3 14.9 25.8803 -21.7854
4 14.9352 25.7973 -47.5213
4 16.293 21.724 -48.879
3 16.332 27.1991 -23.0691
1 19.0768 24.5131 -23.0905
4 19.0085 24.4395 -48.879
4 17.6507 23.0817 -47.5213
1 17.736 28.5527 -21.7676
1 20.4 25.8716 -21.7318
4 20.3663 25.7973 -47.5213
4 21.724 21.724 -48.879
1 21.8043 27.1946 -23.0659
1 24.5318 24.5625 -23.1254
4 24.4395 24.4395 -48.879
4 23.0817 23.0817 -47.5213
1 23.0864 28.4913 -21.6345
1 25.8938 25.9006 -21.7107
4 25.7973 25.7973 -47.5213
4 27.155 21.724 -48.879
1 27.2471 27.2111 -23.0888
1 29.9241 24.4844 -23.0676
4 29.8705 24.4395 -48.879
4 28.5128 23.0817 -47.5213
1 28.6158 28.4945 -21.6144
1 31.3743 25.8105 -21.7015
4 31.2282 25.7973 -47.5213
4 32.586 21.724 -48.879
1 32.6192 27.2329 -23.0769