15589
 Atoms. Timestep: 0
4 0 0 -54.31
4 0 2.7155 -51.5945
4 2.7155 0 -51.5945
4 2.7155 2.7155 -54.31
4 1.35775 1.35775 -52.9522
4 1.35775 4.07325 -50.2368
4 4.07325 1.35775 -50.2368
4 4.07325 4.07325 -52.9522
4 5.431 0 -54.31
4 5.431 2.7155 -51.5945
4 8.1465 0 -51.5945
4 8.1465 2.7155 -54.31
4 6.78875 1.35775 -52.9522
4 6.78875 4.07325 -50.2368
4 9.50425 1.35775 -50.2368
4 9.50425 4.07325 -52.9522
4 10.862 0 -54.31
4 10.862 2.7155 -51.5945
4 13.5775 0 -51.5945
4 13.5775 2.7155 -54.31
4 12.2197 1.35775 -52.9522
4 12.2197 4.07325 -50.2368
4 14.9352 1.35775 -50.2368
4 14.9352 4.07325 -52.9522
4 16.293 0 -54.31
4 16.293 2.7155 -51.5945
4 19.0085 0 -51.5945
4 19.0085 2.7155 -54.31
4 17.6507 1.35775 -52.9522
4 17.6507 4.07325 -50.2368
4 20.3663 1.35775 -50.2368
4 20.3663 4.07325 -52.9522
4 21.724 0 -54.31
4 21.724 2.7155 -51.5945
4 24.4395 0 -51.5945
4 24.4395 2.7155 -54.31
4 23.0817 1.35775 -52.9522
4 23.0817 4.07325 -50.2368
4 25.7973 1.35775 -50.2368
4 25.7973 4.07325 -52.9522
4 27.155 0 -54.31
4 27.155 2.7155 -51.5945
4 29.8705 0 -51.5945
4 29.8705 2.7155 -54.31
4 28.5128 1.35775 -52.9522
4 28.5128 4.07325 -50.2368
4 31.2282 1.35775 -50.2368
4 31.2282 4.07325 -52.9522
4 32.586 0 -54.31
4 32.586 2.7155 -51.5945
4 35.3015 0 -51.5945
4 35.3015 2.7155 -54.31
4 33.9438 1.35775 -52.9522
4 33.9438 4.07325 -50.2368
4 36.6593 1.35775 -50.2368
4 36.6593 4.07325 -52.9522
4 38.017 0 -54.31
4 38.017 2.7155 -51.5945
4 40.7325 0 -51.5945
4 40.7325 2.7155 -54.31
4 39.3747 1.35775 -52.9522
4 39.3747 4.07325 -50.2368
4 42.0902 1.35775 -50.2368
4 42.0902 4.07325 -52.9522
4 43.448 0 -54.31
4 43.448 2.7155 -51.5945
4 46.1635 0 -51.5945
4 46.1635 2.7155 -54.31
4 44.8058 1.35775 -52.9522
4 44.8058 4.07325 -50.2368
4 47.5213 1.35775 -50.2368
4 47.5213 4.07325 -52.9522
4 48.879 0 -54.31
4 48.879 2.7155 -51.5945
4 51.5945 0 -51.5945
4 51.5945 2.7155 -54.31
4 50.2368 1.35775 -52.9522
4 50.2368 4.07325 -50.2368
4 52.9522 1.35775 -50.2368
4 52.9522 4.07325 -52.9522
4 0 5.431 -54.31
4 0 8.1465 -51.5945
4 2.7155 5.431 -51.5945
4 2.7155 8.1465 -54.31
4 1.35775 6.78875 -52.9522
4 1.35775 9.50425 -50.2368
4 4.07325 6.78875 -50.2368
4 4.07325 9.50425 -52.9522
4 5.431 5.431 -54.31
4 5.431 8.1465 -51.5945
4 8.1465 5.431 -51.5945
4 8.1465 8.1465 -54.31
4 6.78875 6.78875 -52.9522
4 6.78875 9.50425 -50.2368
4 9.50425 6.78875 -50.2368
4 9.50425 9.50425 -52.9522
4 10.862 5.431 -54.31
4 10.862 8.1465 -51.5945
4 13.5775 5.431 -51.5945
4 13.5775 8.1465 -54.31
4 12.2197 6.78875 -52.9522
4 12.2197 9.50425 -50.2368
4 14.9352 6.78875 -50.2368
4 14.9352 9.50425 -52.9522
4 16.293 5.431 -54.31
4 16.293 8.1465 -51.5945
4 19.0085 5.431 -51.5945
4 19.0085 8.1465 -54.31
4 17.6507 6.78875 -52.9522
4 17.6507 9.50425 -50.2368
4 20.3663 6.78875 -50.2368
4 20.3663 9.50425 -52.9522
4 21.724 5.431 -54.31
4 21.724 8.1465 -51.5945
4 24.4395 5.431 -51.5945
4 24.4395 8.1465 -54.31
4 23.0817 6.78875 -52.9522
4 23.0817 9.50425 -50.2368
4 25.7973 6.78875 -50.2368
4 25.7973 9.50425 -52.9522
4 27.155 5.431 -54.31
4 27.155 8.1465 -51.5945
4 29.8705 5.431 -51.5945
4 29.8705 8.1465 -54.31
4 28.5128 6.78875 -52.9522
4 28.5128 9.50425 -50.2368
4 31.2282 6.78875 -50.2368
4 31.2282 9.50425 -52.9522
4 32.586 5.431 -54.31
4 32.586 8.1465 -51.5945
4 35.3015 5.431 -51.5945
4 35.3015 8.1465 -54.31
4 33.9438 6.78875 -52.9522
4 33.9438 9.50425 -50.2368
4 36.6593 6.78875 -50.2368
4 36.6593 9.50425 -52.9522
4 38.017 5.431 -54.31
4 38.017 8.1465 -51.5945
4 40.7325 5.431 -51.5945
4 40.7325 8.1465 -54.31
4 39.3747 6.78875 -52.9522
4 39.3747 9.50425 -50.2368
4 42.0902 6.78875 -50.2368
4 42.0902 9.50425 -52.9522
4 43.448 5.431 -54.31
4 43.448 8.1465 -51.5945
4 46.1635 5.431 -51.5945
4 46.1635 8.1465 -54.31
4 44.8058 6.78875 -52.9522
4 44.8058 9.50425 -50.2368
4 47.5213 6.78875 -50.2368
4 47.5213 9.50425 -52.9522
4 48.879 5.431 -54.31
4 48.879 8.1465 -51.5945
4 51.5945 5.431 -51.5945
4 51.5945 8.1465 -54.31
4 50.2368 6.78875 -52.9522
4 50.2368 9.50425 -50.2368
4 52.9522 6.78875 -50.2368
4 52.9522 9.50425 -52.9522
4 0 10.862 -54.31
4 0 13.5775 -51.5945
4 2.7155 10.862 -51.5945
4 2.7155 13.5775 -54.31
4 1.35775 12.2197 -52.9522
4 1.35775 14.9352 -50.2368
4 4.07325 12.2197 -50.2368
4 4.07325 14.9352 -52.9522
4 5.431 10.862 -54.31
4 5.431 13.5775 -51.5945
4 8.1465 10.862 -51.5945
4 8.1465 13.5775 -54.31
4 6.78875 12.2197 -52.9522
4 6.78875 14.9352 -50.2368
4 9.50425 12.2197 -50.2368
4 9.50425 14.9352 -52.9522
4 10.862 10.862 -54.31
4 10.862 13.5775 -51.5945
4 13.5775 10.862 -51.5945
4 13.5775 13.5775 -54.31
4 12.2197 12.2197 -52.9522
4 12.2197 14.9352 -50.2368
4 14.9352 12.2197 -50.2368
4 14.9352 14.9352 -52.9522
4 16.293 10.862 -54.31
4 16.293 13.5775 -51.5945
4 19.0085 10.862 -51.5945
4 19.0085 13.5775 -54.31
4 17.6507 12.2197 -52.9522
4 17.6507 14.9352 -50.2368
4 20.3663 12.2197 -50.2368
4 20.3663 14.9352 -52.9522
4 21.724 10.862 -54.31
4 21.724 13.5775 -51.5945
4 24.4395 10.862 -51.5945
4 24.4395 13.5775 -54.31
4 23.0817 12.2197 -52.9522
4 23.0817 14.9352 -50.2368
4 25.7973 12.2197 -50.2368
4 25.7973 14.9352 -52.9522
4 27.155 10.862 -54.31
4 27.155 13.5775 -51.5945
4 29.8705 10.862 -51.5945
4 29.8705 13.5775 -54.31
4 28.5128 12.2197 -52.9522
4 28.5128 14.9352 -50.2368
4 31.2282 12.2197 -50.2368
4 31.2282 14.9352 -52.9522
4 32.586 10.862 -54.31
4 32.586 13.5775 -51.5945
4 35.3015 10.862 -51.5945
4 35.3015 13.5775 -54.31
4 33.9438 12.2197 -52.9522
4 33.9438 14.9352 -50.2368
4 36.6593 12.2197 -50.2368
4 36.6593 14.9352 -52.9522
4 38.017 10.862 -54.31
4 38.017 13.5775 -51.5945
4 40.7325 10.862 -51.5945
4 40.7325 13.5775 -54.31
4 39.3747 12.2197 -52.9522
4 39.3747 14.9352 -50.2368
4 42.0902 12.2197 -50.2368
4 42.0902 14.9352 -52.9522
4 43.448 10.862 -54.31
4 43.448 13.5775 -51.5945
4 46.1635 10.862 -51.5945
4 46.1635 13.5775 -54.31
4 44.8058 12.2197 -52.9522
4 44.8058 14.9352 -50.2368
4 47.5213 12.2197 -50.2368
4 47.5213 14.9352 -52.9522
4 48.879 10.862 -54.31
4 48.879 13.5775 -51.5945
4 51.5945 10.862 -51.5945
4 51.5945 13.5775 -54.31
4 50.2368 12.2197 -52.9522
4 50.2368 14.9352 -50.2368
4 52.9522 12.2197 -50.2368
4 52.9522 14.9352 -52.9522
4 0 16.293 -54.31
4 0 19.0085 -51.5945
4 2.7155 16.293 -51.5945
4 2.7155 19.0085 -54.31
4 1.35775 17.6507 -52.9522
4 1.35775 20.3663 -50.2368
4 4.07325 17.6507 -50.2368
4 4.07325 20.3663 -52.9522
4 5.431 16.293 -54.31
4 5.431 19.0085 -51.5945
4 8.1465 16.293 -51.5945
4 8.1465 19.0085 -54.31
4 6.78875 17.6507 -52.9522
4 6.78875 20.3663 -50.2368
4 9.50425 17.6507 -50.2368
4 9.50425 20.3663 -52.9522
4 10.862 16.293 -54.31
4 10.862 19.0085 -51.5945
4 13.5775 16.293 -51.5945
4 13.5775 19.0085 -54.31
4 12.2197 17.6507 -52.9522
4 12.2197 20.3663 -50.2368
4 14.9352 17.6507 -50.2368
4 14.9352 20.3663 -52.9522
4 16.293 16.293 -54.31
4 16.293 19.0085 -51.5945
4 19.0085 16.293 -51.5945
4 19.0085 19.0085 -54.31
4 17.6507 17.6507 -52.9522
4 17.6507 20.3663 -50.2368
4 20.3663 17.6507 -50.2368
4 20.3663 20.3663 -52.9522
4 21.724 16.293 -54.31
4 21.724 19.0085 -51.5945
4 24.4395 16.293 -51.5945
4 24.4395 19.0085 -54.31
4 23.0817 17.6507 -52.9522
4 23.0817 20.3663 -50.2368
4 25.7973 17.6507 -50.2368
4 25.7973 20.3663 -52.9522
4 27.155 16.293 -54.31
4 27.155 19.0085 -51.5945
4 29.8705 16.293 -51.5945
4 29.8705 19.0085 -54.31
4 28.5128 17.6507 -52.9522
4 28.5128 20.3663 -50.2368
4 31.2282 17.6507 -50.2368
4 31.2282 20.3663 -52.9522
4 32.586 16.293 -54.31
4 32.586 19.0085 -51.5945
4 35.3015 16.293 -51.5945
4 35.3015 19.0085 -54.31
4 33.9438 17.6507 -52.9522
4 33.9438 20.3663 -50.2368
4 36.6593 17.6507 -50.2368
4 36.6593 20.3663 -52.9522
4 38.017 16.293 -54.31
4 38.017 19.0085 -51.5945
4 40.7325 16.293 -51.5945
4 40.7325 19.0085 -54.31
4 39.3747 17.6507 -52.9522
4 39.3747 20.3663 -50.2368
4 42.0902 17.6507 -50.2368
4 42.0902 20.3663 -52.9522
4 43.448 16.293 -54.31
4 43.448 19.0085 -51.5945
4 46.1635 16.293 -51.5945
4 46.1635 19.0085 -54.31
4 44.8058 17.6507 -52.9522
4 44.8058 20.3663 -50.2368
4 47.5213 17.6507 -50.2368
4 47.5213 20.3663 -52.9522
4 48.879 16.293 -54.31
4 48.879 19.0085 -51.5945
4 51.5945 16.293 -51.5945
4 51.5945 19.0085 -54.31
4 50.2368 17.6507 -52.9522
4 50.2368 20.3663 -50.2368
4 52.9522 17.6507 -50.2368
4 52.9522 20.3663 -52.9522
4 0 21.724 -54.31
4 0 24.4395 -51.5945
4 2.7155 21.724 -51.5945
4 2.7155 24.4395 -54.31
4 1.35775 23.0817 -52.9522
4 1.35775 25.7973 -50.2368
4 4.07325 23.0817 -50.2368
4 4.07325 25.7973 -52.9522
4 5.431 21.724 -54.31
4 5.431 24.4395 -51.5945
4 8.1465 21.724 -51.5945
4 8.1465 24.4395 -54.31
4 6.78875 23.0817 -52.9522
4 6.78875 25.7973 -50.2368
4 9.50425 23.0817 -50.2368
4 9.50425 25.7973 -52.9522
4 10.862 21.724 -54.31
4 10.862 24.4395 -51.5945
4 13.5775 21.724 -51.5945
4 13.5775 24.4395 -54.31
4 12.2197 23.0817 -52.9522
4 12.2197 25.7973 -50.2368
4 14.9352 23.0817 -50.2368
4 14.9352 25.7973 -52.9522
4 16.293 21.724 -54.31
4 16.293 24.4395 -51.5945
4 19.0085 21.724 -51.5945
4 19.0085 24.4395 -54.31
4 17.6507 23.0817 -52.9522
4 17.6507 25.7973 -50.2368
4 20.3663 23.0817 -50.2368
4 20.3663 25.7973 -52.9522
4 21.724 21.724 -54.31
4 21.724 24.4395 -51.5945
4 24.4395 21.724 -51.5945
4 24.4395 24.4395 -54.31
4 23.0817 23.0817 -52.9522
4 23.0817 25.7973 -50.2368
4 25.7973 23.0817 -50.2368
4 25.7973 25.7973 -52.9522
4 27.155 21.724 -54.31
4 27.155 24.4395 -51.5945
4 29.8705 21.724 -51.5945
4 29.8705 24.4395 -54.31
4 28.5128 23.0817 -52.9522
4 28.5128 25.7973 -50.2368
4 31.2282 23.0817 -50.2368
4 31.2282 25.7973 -52.9522
4 32.586 21.724 -54.31
4 32.586 24.4395 -51.5945
4 35.3015 21.724 -51.5945
4 35.3015 24.4395 -54.31
4 33.9438 23.0817 -52.9522
4 33.9438 25.7973 -50.2368
4 36.6593 23.0817 -50.2368
4 36.6593 25.7973 -52.9522
4 38.017 21.724 -54.31
4 38.017 24.4395 -51.5945
4 40.7325 21.724 -51.5945
4 40.7325 24.4395 -54.31
4 39.3747 23.0817 -52.9522
4 39.3747 25.7973 -50.2368
4 42.0902 23.0817 -50.2368
4 42.0902 25.7973 -52.9522
4 43.448 21.724 -54.31
4 43.448 24.4395 -51.5945
4 46.1635 21.724 -51.5945
4 46.1635 24.4395 -54.31
4 44.8058 23.0817 -52.9522
4 44.8058 25.7973 -50.2368
4 47.5213 23.0817 -50.2368
4 47.5213 25.7973 -52.9522
4 48.879 21.724 -54.31
4 48.879 24.4395 -51.5945
4 51.5945 21.724 -51.5945
4 51.5945 24.4395 -54.31
4 50.2368 23.0817 -52.9522
4 50.2368 25.7973 -50.2368
4 52.9522 23.0817 -50.2368
4 52.9522 25.7973 -52.9522
4 0 27.155 -54.31
4 0 29.8705 -51.5945
4 2.7155 27.155 -51.5945
4 2.7155 29.8705 -54.31
4 1.35775 28.5128 -52.9522
4 1.35775 31.2282 -50.2368
4 4.07325 28.5128 -50.2368
4 4.07325 31.2282 -52.9522
4 5.431 27.155 -54.31
4 5.431 29.8705 -51.5945
4 8.1465 27.155 -51.5945
4 8.1465 29.8705 -54.31
4 6.78875 28.5128 -52.9522
4 6.78875 31.2282 -50.2368
4 9.50425 28.5128 -50.2368
4 9.50425 31.2282 -52.9522
4 10.862 27.155 -54.31
4 10.862 29.8705 -51.5945
4 13.5775 27.155 -51.5945
4 13.5775 29.8705 -54.31
4 12.2197 28.5128 -52.9522
4 12.2197 31.2282 -50.2368
4 14.9352 28.5128 -50.2368
4 14.9352 31.2282 -52.9522
4 16.293 27.155 -54.31
4 16.293 29.8705 -51.5945
4 19.0085 27.155 -51.5945
4 19.0085 29.8705 -54.31
4 17.6507 28.5128 -52.9522
4 17.6507 31.2282 -50.2368
4 20.3663 28.5128 -50.2368
4 20.3663 31.2282 -52.9522
4 21.724 27.155 -54.31
4 21.724 29.8705 -51.5945
4 24.4395 27.155 -51.5945
4 24.4395 29.8705 -54.31
4 23.0817 28.5128 -52.9522
4 23.0817 31.2282 -50.2368
4 25.7973 28.5128 -50.2368
4 25.7973 31.2282 -52.9522
4 27.155 27.155 -54.31
4 27.155 29.8705 -51.5945
4 29.8705 27.155 -51.5945
4 29.8705 29.8705 -54.31
4 28.5128 28.5128 -52.9522
4 28.5128 31.2282 -50.2368
4 31.2282 28.5128 -50.2368
4 31.2282 31.2282 -52.9522
4 32.586 27.155 -54.31
4 32.586 29.8705 -51.5945
4 35.3015 27.155 -51.5945
4 35.3015 29.8705 -54.31
4 33.9438 28.5128 -52.9522
4 33.9438 31.2282 -50.2368
4 36.6593 28.5128 -50.2368
4 36.6593 31.2282 -52.9522
4 38.017 27.155 -54.31
4 38.017 29.8705 -51.5945
4 40.7325 27.155 -51.5945
4 40.7325 29.8705 -54.31
4 39.3747 28.5128 -52.9522
4 39.3747 31.2282 -50.2368
4 42.0902 28.5128 -50.2368
4 42.0902 31.2282 -52.9522
4 43.448 27.155 -54.31
4 43.448 29.8705 -51.5945
4 46.1635 27.155 -51.5945
4 46.1635 29.8705 -54.31
4 44.8058 28.5128 -52.9522
4 44.8058 31.2282 -50.2368
4 47.5213 28.5128 -50.2368
4 47.5213 31.2282 -52.9522
4 48.879 27.155 -54.31
4 48.879 29.8705 -51.5945
4 51.5945 27.155 -51.5945
4 51.5945 29.8705 -54.31
4 50.2368 28.5128 -52.9522
4 50.2368 31.2282 -50.2368
4 52.9522 28.5128 -50.2368
4 52.9522 31.2282 -52.9522
4 0 32.586 -54.31
4 0 35.3015 -51.5945
4 2.7155 32.586 -51.5945
4 2.7155 35.3015 -54.31
4 1.35775 33.9438 -52.9522
4 1.35775 36.6593 -50.2368
4 4.07325 33.9438 -50.2368
4 4.07325 36.6593 -52.9522
4 5.431 32.586 -54.31
4 5.431 35.3015 -51.5945
4 8.1465 32.586 -51.5945
4 8.1465 35.3015 -54.31
4 6.78875 33.9438 -52.9522
4 6.78875 36.6593 -50.2368
4 9.50425 33.9438 -50.2368
4 9.50425 36.6593 -52.9522
4 10.862 32.586 -54.31
4 10.862 35.3015 -51.5945
4 13.5775 32.586 -51.5945
4 13.5775 35.3015 -54.31
4 12.2197 33.9438 -52.9522
4 12.2197 36.6593 -50.2368
4 14.9352 33.9438 -50.2368
4 14.9352 36.6593 -52.9522
4 16.293 32.586 -54.31
4 16.293 35.3015 -51.5945
4 19.0085 32.586 -51.5945
4 19.0085 35.3015 -54.31
4 17.6507 33.9438 -52.9522
4 17.6507 36.6593 -50.2368
4 20.3663 33.9438 -50.2368
4 20.3663 36.6593 -52.9522
4 21.724 32.586 -54.31
4 21.724 35.3015 -51.5945
4 24.4395 32.586 -51.5945
4 24.4395 35.3015 -54.31
4 23.0817 33.9438 -52.9522
4 23.0817 36.6593 -50.2368
4 25.7973 33.9438 -50.2368
4 25.7973 36.6593 -52.9522
4 27.155 32.586 -54.31
4 27.155 35.3015 -51.5945
4 29.8705 32.586 -51.5945
4 29.8705 35.3015 -54.31
4 28.5128 33.9438 -52.9522
4 28.5128 36.6593 -50.2368
4 31.2282 33.9438 -50.2368
4 31.2282 36.6593 -52.9522
4 32.586 32.586 -54.31
4 32.586 35.3015 -51.5945
4 35.3015 32.586 -51.5945
4 35.3015 35.3015 -54.31
4 33.9438 33.9438 -52.9522
4 33.9438 36.6593 -50.2368
4 36.6593 33.9438 -50.2368
4 36.6593 36.6593 -52.9522
4 38.017 32.586 -54.31
4 38.017 35.3015 -51.5945
4 40.7325 32.586 -51.5945
4 40.7325 35.3015 -54.31
4 39.3747 33.9438 -52.9522
4 39.3747 36.6593 -50.2368
4 42.0902 33.9438 -50.2368
4 42.0902 36.6593 -52.9522
4 43.448 32.586 -54.31
4 43.448 35.3015 -51.5945
4 46.1635 32.586 -51.5945
4 46.1635 35.3015 -54.31
4 44.8058 33.9438 -52.9522
4 44.8058 36.6593 -50.2368
4 47.5213 33.9438 -50.2368
4 47.5213 36.6593 -52.9522
4 48.879 32.586 -54.31
4 48.879 35.3015 -51.5945
4 51.5945 32.586 -51.5945
4 51.5945 35.3015 -54.31
4 50.2368 33.9438 -52.9522
4 50.2368 36.6593 -50.2368
4 52.9522 33.9438 -50.2368
4 52.9522 36.6593 -52.9522
4 0 38.017 -54.31
4 0 40.7325 -51.5945
4 2.7155 38.017 -51.5945
4 2.7155 40.7325 -54.31
4 1.35775 39.3747 -52.9522
4 1.35775 42.0902 -50.2368
4 4.07325 39.3747 -50.2368
4 4.07325 42.0902 -52.9522
4 5.431 38.017 -54.31
4 5.431 40.7325 -51.5945
4 8.1465 38.017 -51.5945
4 8.1465 40.7325 -54.31
4 6.78875 39.3747 -52.9522
4 6.78875 42.0902 -50.2368
4 9.50425 39.3747 -50.2368
4 9.50425 42.0902 -52.9522
4 10.862 38.017 -54.31
4 10.862 40.7325 -51.5945
4 13.5775 38.017 -51.5945
4 13.5775 40.7325 -54.31
4 12.2197 39.3747 -52.9522
4 12.2197 42.0902 -50.2368
4 14.9352 39.3747 -50.2368
4 14.9352 42.0902 -52.9522
4 16.293 38.017 -54.31
4 16.293 40.7325 -51.5945
4 19.0085 38.017 -51.5945
4 19.0085 40.7325 -54.31
4 17.6507 39.3747 -52.9522
4 17.6507 42.0902 -50.2368
4 20.3663 39.3747 -50.2368
4 20.3663 42.0902 -52.9522
4 21.724 38.017 -54.31
4 21.724 40.7325 -51.5945
4 24.4395 38.017 -51.5945
4 24.4395 40.7325 -54.31
4 23.0817 39.3747 -52.9522
4 23.0817 42.0902 -50.2368
4 25.7973 39.3747 -50.2368
4 25.7973 42.0902 -52.9522
4 27.155 38.017 -54.31
4 27.155 40.7325 -51.5945
4 29.8705 38.017 -51.5945
4 29.8705 40.7325 -54.31
4 28.5128 39.3747 -52.9522
4 28.5128 42.0902 -50.2368
4 31.2282 39.3747 -50.2368
4 31.2282 42.0902 -52.9522
4 32.586 38.017 -54.31
4 32.586 40.7325 -51.5945
4 35.3015 38.017 -51.5945
4 35.3015 40.7325 -54.31
4 33.9438 39.3747 -52.9522
4 33.9438 42.0902 -50.2368
4 36.6593 39.3747 -50.2368
4 36.6593 42.0902 -52.9522
4 38.017 38.017 -54.31
4 38.017 40.7325 -51.5945
4 40.7325 38.017 -51.5945
4 40.7325 40.7325 -54.31
4 39.3747 39.3747 -52.9522
4 39.3747 42.0902 -50.2368
4 42.0902 39.3747 -50.2368
4 42.0902 42.0902 -52.9522
4 43.448 38.017 -54.31
4 43.448 40.7325 -51.5945
4 46.1635 38.017 -51.5945
4 46.1635 40.7325 -54.31
4 44.8058 39.3747 -52.9522
4 44.8058 42.0902 -50.2368
4 47.5213 39.3747 -50.2368
4 47.5213 42.0902 -52.9522
4 48.879 38.017 -54.31
4 48.879 40.7325 -51.5945
4 51.5945 38.017 -51.5945
4 51.5945 40.7325 -54.31
4 50.2368 39.3747 -52.9522
4 50.2368 42.0902 -50.2368
4 52.9522 39.3747 -50.2368
4 52.9522 42.0902 -52.9522
4 0 43.448 -54.31
4 0 46.1635 -51.5945
4 2.7155 43.448 -51.5945
4 2.7155 46.1635 -54.31
4 1.35775 44.8058 -52.9522
4 1.35775 47.5213 -50.2368
4 4.07325 44.8058 -50.2368
4 4.07325 47.5213 -52.9522
4 5.431 43.448 -54.31
4 5.431 46.1635 -51.5945
4 8.1465 43.448 -51.5945
4 8.1465 46.1635 -54.31
4 6.78875 44.8058 -52.9522
4 6.78875 47.5213 -50.2368
4 9.50425 44.8058 -50.2368
4 9.50425 47.5213 -52.9522
4 10.862 43.448 -54.31
4 10.862 46.1635 -51.5945
4 13.5775 43.448 -51.5945
4 13.5775 46.1635 -54.31
4 12.2197 44.8058 -52.9522
4 12.2197 47.5213 -50.2368
4 14.9352 44.8058 -50.2368
4 14.9352 47.5213 -52.9522
4 16.293 43.448 -54.31
4 16.293 46.1635 -51.5945
4 19.0085 43.448 -51.5945
4 19.0085 46.1635 -54.31
4 17.6507 44.8058 -52.9522
4 17.6507 47.5213 -50.2368
4 20.3663 44.8058 -50.2368
4 20.3663 47.5213 -52.9522
4 21.724 43.448 -54.31
4 21.724 46.1635 -51.5945
4 24.4395 43.448 -51.5945
4 24.4395 46.1635 -54.31
4 23.0817 44.8058 -52.9522
4 23.0817 47.5213 -50.2368
4 25.7973 44.8058 -50.2368
4 25.7973 47.5213 -52.9522
4 27.155 43.448 -54.31
4 27.155 46.1635 -51.5945
4 29.8705 43.448 -51.5945
4 29.8705 46.1635 -54.31
4 28.5128 44.8058 -52.9522
4 28.5128 47.5213 -50.2368
4 31.2282 44.8058 -50.2368
4 31.2282 47.5213 -52.9522
4 32.586 43.448 -54.31
4 32.586 46.1635 -51.5945
4 35.3015 43.448 -51.5945
4 35.3015 46.1635 -54.31
4 33.9438 44.8058 -52.9522
4 33.9438 47.5213 -50.2368
4 36.6593 44.8058 -50.2368
4 36.6593 47.5213 -52.9522
4 38.017 43.448 -54.31
4 38.017 46.1635 -51.5945
4 40.7325 43.448 -51.5945
4 40.7325 46.1635 -54.31
4 39.3747 44.8058 -52.9522
4 39.3747 47.5213 -50.2368
4 42.0902 44.8058 -50.2368
4 42.0902 47.5213 -52.9522
4 43.448 43.448 -54.31
4 43.448 46.1635 -51.5945
4 46.1635 43.448 -51.5945
4 46.1635 46.1635 -54.31
4 44.8058 44.8058 -52.9522
4 44.8058 47.5213 -50.2368
4 47.5213 44.8058 -50.2368
4 47.5213 47.5213 -52.9522
4 48.879 43.448 -54.31
4 48.879 46.1635 -51.5945
4 51.5945 43.448 -51.5945
4 51.5945 46.1635 -54.31
4 50.2368 44.8058 -52.9522
4 50.2368 47.5213 -50.2368
4 52.9522 44.8058 -50.2368
4 52.9522 47.5213 -52.9522
4 0 48.879 -54.31
4 0 51.5945 -51.5945
4 2.7155 48.879 -51.5945
4 2.7155 51.5945 -54.31
4 1.35775 50.2368 -52.9522
4 1.35775 52.9522 -50.2368
4 4.07325 50.2368 -50.2368
4 4.07325 52.9522 -52.9522
4 5.431 48.879 -54.31
4 5.431 51.5945 -51.5945
4 8.1465 48.879 -51.5945
4 8.1465 51.5945 -54.31
4 6.78875 50.2368 -52.9522
4 6.78875 52.9522 -50.2368
4 9.50425 50.2368 -50.2368
4 9.50425 52.9522 -52.9522
4 10.862 48.879 -54.31
4 10.862 51.5945 -51.5945
4 13.5775 48.879 -51.5945
4 13.5775 51.5945 -54.31
4 12.2197 50.2368 -52.9522
4 12.2197 52.9522 -50.2368
4 14.9352 50.2368 -50.2368
4 14.9352 52.9522 -52.9522
4 16.293 48.879 -54.31
4 16.293 51.5945 -51.5945
4 19.0085 48.879 -51.5945
4 19.0085 51.5945 -54.31
4 17.6507 50.2368 -52.9522
4 17.6507 52.9522 -50.2368
4 20.3663 50.2368 -50.2368
4 20.3663 52.9522 -52.9522
4 21.724 48.879 -54.31
4 21.724 51.5945 -51.5945
4 24.4395 48.879 -51.5945
4 24.4395 51.5945 -54.31
4 23.0817 50.2368 -52.9522
4 23.0817 52.9522 -50.2368
4 25.7973 50.2368 -50.2368
4 25.7973 52.9522 -52.9522
4 27.155 48.879 -54.31
4 27.155 51.5945 -51.5945
4 29.8705 48.879 -51.5945
4 29.8705 51.5945 -54.31
4 28.5128 50.2368 -52.9522
4 28.5128 52.9522 -50.2368
4 31.2282 50.2368 -50.2368
4 31.2282 52.9522 -52.9522
4 32.586 48.879 -54.31
4 32.586 51.5945 -51.5945
4 35.3015 48.879 -51.5945
4 35.3015 51.5945 -54.31
4 33.9438 50.2368 -52.9522
4 33.9438 52.9522 -50.2368
4 36.6593 50.2368 -50.2368
4 36.6593 52.9522 -52.9522
4 38.017 48.879 -54.31
4 38.017 51.5945 -51.5945
4 40.7325 48.879 -51.5945
4 40.7325 51.5945 -54.31
4 39.3747 50.2368 -52.9522
4 39.3747 52.9522 -50.2368
4 42.0902 50.2368 -50.2368
4 42.0902 52.9522 -52.9522
4 43.448 48.879 -54.31
4 43.448 51.5945 -51.5945
4 46.1635 48.879 -51.5945
4 46.1635 51.5945 -54.31
4 44.8058 50.2368 -52.9522
4 44.8058 52.9522 -50.2368
4 47.5213 50.2368 -50.2368
4 47.5213 52.9522 -52.9522
4 48.879 48.879 -54.31
4 48.879 51.5945 -51.5945
4 51.5945 48.879 -51.5945
4 51.5945 51.5945 -54.31
4 50.2368 50.2368 -52.9522
4 50.2368 52.9522 -50.2368
4 52.9522 50.2368 -50.2368
4 52.9522 52.9522 -52.9522
4 0 0 -48.879
3 2.59562 54.2574 -46.2214
4 2.7155 2.7155 -48.879
4 1.35775 1.35775 -47.5213
3 1.34314 4.14185 -44.8851
3 3.88839 1.38902 -44.8027
4 4.07325 4.07325 -47.5213
4 5.431 0 -48.879
3 5.43234 2.71442 -46.2097
3 8.22299 0.0542319 -46.0961
4 8.1465 2.7155 -48.879
4 6.78875 1.35775 -47.5213
3 6.70691 4.14121 -44.8406
3 9.45392 1.43659 -44.7175
4 9.50425 4.07325 -47.5213
4 10.862 0 -48.879
3 10.8328 2.74349 -46.1361
3 13.6507 0.00965075 -46.182
4 13.5775 2.7155 -48.879
4 12.2197 1.35775 -47.5213
3 12.1867 4.1417 -44.7592
3 14.9609 1.36889 -44.7496
4 14.9352 4.07325 -47.5213
4 16.293 0 -48.879
3 16.3082 2.7012 -46.1556
1 19.0217 0.0372858 -46.1549
4 19.0085 2.7155 -48.879
4 17.6507 1.35775 -47.5213
1 17.564 4.10133 -44.7918
1 20.2837 1.37634 -44.8561
4 20.3663 4.07325 -47.5213
4 21.724 0 -48.879
1 21.6869 2.73713 -46.2001
1 24.3979 0.0631791 -46.1525
4 24.4395 2.7155 -48.879
4 23.0817 1.35775 -47.5213
1 23.0734 4.1253 -44.8581
1 25.7688 1.47021 -44.7559
4 25.7973 4.07325 -47.5213
4 27.155 0 -48.879
1 27.1801 2.76386 -46.1386
1 29.8555 0.0594389 -46.1381
4 29.8705 2.7155 -48.879
4 28.5128 1.35775 -47.5213
1 28.498 4.19373 -44.8039
1 31.1626 1.38303 -44.7114
4 31.2282 4.07325 -47.5213
4 32.586 0 -48.879
1 32.5554 2.62117 -46.1511
1 35.314 54.2722 -46.2427
4 35.3015 2.7155 -48.879
4 33.9438 1.35775 -47.5213
1 33.8931 3.99111 -44.808
1 36.6426 1.35081 -44.7818
4 36.6593 4.07325 -47.5213
4 38.017 0 -48.879
1 38.0054 2.62274 -46.1797
1 40.7547 54.3069 -46.1203
4 40.7325 2.7155 -48.879
4 39.3747 1.35775 -47.5213
1 39.3689 3.95564 -44.8858
1 42.1385 1.39974 -44.833
4 42.0902 4.07325 -47.5213
4 43.448 0 -48.879
1 43.4716 2.74177 -46.1612
1 46.141 54.208 -46.142
4 46.1635 2.7155 -48.879
4 44.8058 1.35775 -47.5213
1 44.8032 4.00874 -44.7663
1 47.6225 1.24597 -44.753
4 47.5213 4.07325 -47.5213
4 48.879 0 -48.879
1 48.8106 2.61936 -46.2231
1 51.6823 0.0621799 -46.1782
4 51.5945 2.7155 -48.879
4 50.2368 1.35775 -47.5213
1 50.2914 4.02156 -44.9365
1 53.1039 1.32287 -44.8173
4 52.9522 4.07325 -47.5213
4 0 5.431 -48.879
3 2.72469 5.49476 -46.2706
4 2.7155 8.1465 -48.879
4 1.35775 6.78875 -47.5213
3 1.26589 9.41536 -44.8969
3 4.07984 6.83862 -44.7531
4 4.07325 9.50425 -47.5213
4 5.431 5.431 -48.879
3 5.37785 8.25012 -46.1348
3 8.05633 5.38436 -46.173
4 8.1465 8.1465 -48.879
4 6.78875 6.78875 -47.5213
3 6.79979 9.47872 -44.7629
3 9.46909 6.77878 -44.8738
4 9.50425 9.50425 -47.5213
4 10.862 5.431 -48.879
3 10.8929 8.15614 -46.1298
3 13.5326 5.48355 -46.2047
4 13.5775 8.1465 -48.879
4 12.2197 6.78875 -47.5213
3 12.2125 9.47018 -44.7457
3 14.8537 6.83089 -44.7124
4 14.9352 9.50425 -47.5213
4 16.293 5.431 -48.879
3 16.2401 8.10802 -46.0941
1 18.9566 5.47632 -46.1466
4 19.0085 8.1465 -48.879
4 17.6507 6.78875 -47.5213
1 17.6127 9.50234 -44.6931
1 20.2858 6.90741 -44.7673
4 20.3663 9.50425 -47.5213
4 21.724 5.431 -48.879
1 21.6991 8.11705 -46.1228
1 24.4714 5.43831 -46.1832
4 24.4395 8.1465 -48.879
4 23.0817 6.78875 -47.5213
1 23.1461 9.4405 -44.7545
1 25.8247 6.80374 -44.7905
4 25.7973 9.50425 -47.5213
4 27.155 5.431 -48.879
1 27.1763 8.17729 -46.1423
1 29.8795 5.46895 -46.1522
4 29.8705 8.1465 -48.879
4 28.5128 6.78875 -47.5213
1 28.5387 9.52487 -44.7713
1 31.226 6.88375 -44.8597
4 31.2282 9.50425 -47.5213
4 32.586 5.431 -48.879
1 32.5986 8.14924 -46.2775
1 35.2954 5.34192 -46.1107
4 35.3015 8.1465 -48.879
4 33.9438 6.78875 -47.5213
1 33.9942 9.44076 -44.9098
1 36.6103 6.80698 -44.7519
4 36.6593 9.50425 -47.5213
4 38.017 5.431 -48.879
1 37.9981 8.15826 -46.1014
1 40.6694 5.44438 -46.1336
4 40.7325 8.1465 -48.879
4 39.3747 6.78875 -47.5213
1 39.3064 9.59912 -44.7692
1 42.0963 6.82219 -44.8501
4 42.0902 9.50425 -47.5213
4 43.448 5.431 -48.879
1 43.4321 8.13983 -46.234
1 46.056 5.3814 -46.1699
4 46.1635 8.1465 -48.879
4 44.8058 6.78875 -47.5213
1 44.7623 9.47732 -44.7412
1 47.5156 6.69381 -44.8548
4 47.5213 9.50425 -47.5213
4 48.879 5.431 -48.879
1 48.9066 8.18702 -46.1399
1 51.6526 5.43058 -46.1624
4 51.5945 8.1465 -48.879
4 50.2368 6.78875 -47.5213
1 50.1864 9.49417 -44.7777
1 53.0347 6.83178 -44.851
4 52.9522 9.50425 -47.5213
4 0 10.862 -48.879
3 2.65762 10.8032 -46.183
4 2.7155 13.5775 -48.879
4 1.35775 12.2197 -47.5213
3 1.33133 14.9098 -44.8818
3 3.97278 12.2548 -44.8302
4 4.07325 14.9352 -47.5213
4 5.431 10.862 -48.879
3 5.47652 13.6485 -46.1699
3 8.05676 10.8752 -46.1358
4 8.1465 13.5775 -48.879
4 6.78875 12.2197 -47.5213
3 6.78602 14.9488 -44.7036
3 9.50139 12.1652 -44.7743
4 9.50425 14.9352 -47.5213
4 10.862 10.862 -48.879
3 10.9251 13.567 -46.1348
3 13.5704 10.8288 -46.0635
4 13.5775 13.5775 -48.879
4 12.2197 12.2197 -47.5213
3 12.185 14.919 -44.7394
3 14.924 12.2178 -44.7534
4 14.9352 14.9352 -47.5213
4 16.293 10.862 -48.879
3 16.2509 13.5348 -46.1814
1 19.0027 10.7945 -46.1658
4 19.0085 13.5775 -48.879
4 17.6507 12.2197 -47.5213
1 17.6135 14.851 -44.7007
1 20.3519 12.1861 -44.7472
4 20.3663 14.9352 -47.5213
4 21.724 10.862 -48.879
1 21.6459 13.598 -46.107
1 24.4469 10.8599 -46.1454
4 24.4395 13.5775 -48.879
4 23.0817 12.2197 -47.5213
1 23.0921 14.9037 -44.7068
1 25.8249 12.2237 -44.7117
4 25.7973 14.9352 -47.5213
4 27.155 10.862 -48.879
1 27.1558 13.6052 -46.183
1 29.8993 10.8393 -46.2249
4 29.8705 13.5775 -48.879
4 28.5128 12.2197 -47.5213
1 28.5351 14.9626 -44.8236
1 31.1075 12.2327 -44.7862
4 31.2282 14.9352 -47.5213
4 32.586 10.862 -48.879
1 32.4488 13.4094 -46.1693
1 35.3969 10.845 -46.1759
4 35.3015 13.5775 -48.879
4 33.9438 12.2197 -47.5213
1 33.9118 14.8502 -44.895
1 36.6224 12.3561 -44.7899
4 36.6593 14.9352 -47.5213
4 38.017 10.862 -48.879
1 38.0695 13.6286 -46.1504
1 40.7345 10.8968 -46.1406
4 40.7325 13.5775 -48.879
4 39.3747 12.2197 -47.5213
1 39.5081 14.9491 -44.7555
1 42.0854 12.3068 -44.8021
4 42.0902 14.9352 -47.5213
4 43.448 10.862 -48.879
1 43.4456 13.5923 -46.2163
1 46.1637 10.8343 -46.1494
4 46.1635 13.5775 -48.879
4 44.8058 12.2197 -47.5213
1 44.767 14.8535 -44.8075
1 47.5515 12.1699 -44.802
4 47.5213 14.9352 -47.5213
4 48.879 10.862 -48.879
1 48.8349 13.5753 -46.0994
1 51.5159 10.8275 -46.1215
4 51.5945 13.5775 -48.879
4 50.2368 12.2197 -47.5213
1 50.2861 14.9213 -44.8295
1 52.9676 12.1885 -44.92
4 52.9522 14.9352 -47.5213
4 0 16.293 -48.879
3 2.68557 16.297 -46.1664
4 2.7155 19.0085 -48.879
4 1.35775 17.6507 -47.5213
3 1.31293 20.269 -44.9499
3 4.06877 17.594 -44.7963
4 4.07325 20.3663 -47.5213
4 5.431 16.293 -48.879
3 5.39241 18.9618 -46.2138
3 8.07173 16.2987 -46.1389
4 8.1465 19.0085 -48.879
4 6.78875 17.6507 -47.5213
3 6.66898 20.3475 -44.8356
3 9.54013 17.613 -44.8587
4 9.50425 20.3663 -47.5213
4 10.862 16.293 -48.879
3 10.8556 18.9856 -46.1667
3 13.4856 16.2577 -46.1132
4 13.5775 19.0085 -48.879
4 12.2197 17.6507 -47.5213
3 12.2082 20.314 -44.718
3 14.9254 17.5718 -44.8156
4 14.9352 20.3663 -47.5213
4 16.293 16.293 -48.879
3 16.3057 18.9626 -46.0513
1 18.957 16.2167 -46.0888
4 19.0085 19.0085 -48.879
4 17.6507 17.6507 -47.5213
1 17.5501 20.4125 -44.778
1 20.404 17.6357 -44.7055
4 20.3663 20.3663 -47.5213
4 21.724 16.293 -48.879
1 21.7271 19.0296 -46.1612
1 24.3956 16.2981 -46.1078
4 24.4395 19.0085 -48.879
4 23.0817 17.6507 -47.5213
1 23.1549 20.3123 -44.8496
1 25.7515 17.6508 -44.7523
4 25.7973 20.3663 -47.5213
4 27.155 16.293 -48.879
1 27.1236 19.0421 -46.1434
1 29.8857 16.2529 -46.1811
4 29.8705 19.0085 -48.879
4 28.5128 17.6507 -47.5213
1 28.4096 20.3279 -44.7802
1 31.151 17.6724 -44.7766
4 31.2282 20.3663 -47.5213
4 32.586 16.293 -48.879
1 32.5536 18.9833 -46.1731
1 35.3511 16.2432 -46.2139
4 35.3015 19.0085 -48.879
4 33.9438 17.6507 -47.5213
1 33.8926 20.3451 -44.8383
1 36.6942 17.6132 -44.822
4 36.6593 20.3663 -47.5213
4 38.017 16.293 -48.879
1 38.0435 19.0507 -46.163
1 40.7613 16.3598 -46.1698
4 40.7325 19.0085 -48.879
4 39.3747 17.6507 -47.5213
1 39.4371 20.3953 -44.751
1 42.1685 17.5701 -44.7835
4 42.0902 20.3663 -47.5213
4 43.448 16.293 -48.879
1 43.4185 18.9105 -46.1677
1 46.0926 16.2786 -46.1966
4 46.1635 19.0085 -48.879
4 44.8058 17.6507 -47.5213
1 44.7853 20.2561 -44.7112
1 47.487 17.596 -44.7721
4 47.5213 20.3663 -47.5213
4 48.879 16.293 -48.879
1 48.8107 18.9602 -46.2056
1 51.5594 16.2653 -46.1753
4 51.5945 19.0085 -48.879
4 50.2368 17.6507 -47.5213
1 50.1765 20.2462 -44.8422
1 53.0301 17.3862 -44.7266
4 52.9522 20.3663 -47.5213
4 0 21.724 -48.879
3 2.70906 21.6718 -46.1763
4 2.7155 24.4395 -48.879
4 1.35775 23.0817 -47.5213
3 1.11257 25.7101 -44.8122
3 4.0611 23.1252 -44.7024
4 4.07325 25.7973 -47.5213
4 5.431 21.724 -48.879
3 5.38407 24.4074 -46.1384
3 8.09398 21.695 -46.1235
4 8.1465 24.4395 -48.879
4 6.78875 23.0817 -47.5213
3 6.68567 25.8424 -44.8153
3 9.40824 23.189 -44.8166
4 9.50425 25.7973 -47.5213
4 10.862 21.724 -48.879
3 10.8403 24.4526 -46.1642
3 13.4792 21.6809 -46.1263
4 13.5775 24.4395 -48.879
4 12.2197 23.0817 -47.5213
3 12.1763 25.763 -44.7195
3 14.841 23.0211 -44.7267
4 14.9352 25.7973 -47.5213
4 16.293 21.724 -48.879
3 16.204 24.4256 -46.1043
1 19.0185 21.6488 -46.1541
4 19.0085 24.4395 -48.879
4 17.6507 23.0817 -47.5213
1 17.6605 25.7434 -44.807
1 20.4517 22.9633 -44.8427
4 20.3663 25.7973 -47.5213
4 21.724 21.724 -48.879
1 21.7377 24.3981 -46.1675
1 24.4483 21.7333 -46.1487
4 24.4395 24.4395 -48.879
4 23.0817 23.0817 -47.5213
1 23.0332 25.7493 -44.8259
1 25.8109 23.0047 -44.7926
4 25.7973 25.7973 -47.5213
4 27.155 21.724 -48.879
1 27.1555 24.4235 -46.1099
1 29.8081 21.6414 -46.1316
4 29.8705 24.4395 -48.879
4 28.5128 23.0817 -47.5213
1 28.5282 25.7403 -44.8061
1 31.1229 23.1019 -44.8116
4 31.2282 25.7973 -47.5213
4 32.586 21.724 -48.879