15338
 Atoms. Timestep: 70000
4 0 0 -54.31
4 0 2.7155 -51.5945
4 2.7155 0 -51.5945
4 2.7155 2.7155 -54.31
4 1.35775 1.35775 -52.9522
4 1.35775 4.07325 -50.2368
4 4.07325 1.35775 -50.2368
4 4.07325 4.07325 -52.9522
4 5.431 0 -54.31
4 5.431 2.7155 -51.5945
4 8.1465 0 -51.5945
4 8.1465 2.7155 -54.31
4 6.78875 1.35775 -52.9522
4 6.78875 4.07325 -50.2368
4 9.50425 1.35775 -50.2368
4 9.50425 4.07325 -52.9522
4 10.862 0 -54.31
4 10.862 2.7155 -51.5945
4 13.5775 0 -51.5945
4 13.5775 2.7155 -54.31
4 12.2197 1.35775 -52.9522
4 12.2197 4.07325 -50.2368
4 14.9352 1.35775 -50.2368
4 14.9352 4.07325 -52.9522
4 16.293 0 -54.31
4 16.293 2.7155 -51.5945
4 19.0085 0 -51.5945
4 19.0085 2.7155 -54.31
4 17.6507 1.35775 -52.9522
4 17.6507 4.07325 -50.2368
4 20.3663 1.35775 -50.2368
4 20.3663 4.07325 -52.9522
4 21.724 0 -54.31
4 21.724 2.7155 -51.5945
4 24.4395 0 -51.5945
4 24.4395 2.7155 -54.31
4 23.0817 1.35775 -52.9522
4 23.0817 4.07325 -50.2368
4 25.7973 1.35775 -50.2368
4 25.7973 4.07325 -52.9522
4 27.155 0 -54.31
4 27.155 2.7155 -51.5945
4 29.8705 0 -51.5945
4 29.8705 2.7155 -54.31
4 28.5128 1.35775 -52.9522
4 28.5128 4.07325 -50.2368
4 31.2282 1.35775 -50.2368
4 31.2282 4.07325 -52.9522
4 32.586 0 -54.31
4 32.586 2.7155 -51.5945
4 35.3015 0 -51.5945
4 35.3015 2.7155 -54.31
4 33.9438 1.35775 -52.9522
4 33.9438 4.07325 -50.2368
4 36.6593 1.35775 -50.2368
4 36.6593 4.07325 -52.9522
4 38.017 0 -54.31
4 38.017 2.7155 -51.5945
4 40.7325 0 -51.5945
4 40.7325 2.7155 -54.31
4 39.3747 1.35775 -52.9522
4 39.3747 4.07325 -50.2368
4 42.0902 1.35775 -50.2368
4 42.0902 4.07325 -52.9522
4 43.448 0 -54.31
4 43.448 2.7155 -51.5945
4 46.1635 0 -51.5945
4 46.1635 2.7155 -54.31
4 44.8058 1.35775 -52.9522
4 44.8058 4.07325 -50.2368
4 47.5213 1.35775 -50.2368
4 47.5213 4.07325 -52.9522
4 48.879 0 -54.31
4 48.879 2.7155 -51.5945
4 51.5945 0 -51.5945
4 51.5945 2.7155 -54.31
4 50.2368 1.35775 -52.9522
4 50.2368 4.07325 -50.2368
4 52.9522 1.35775 -50.2368
4 52.9522 4.07325 -52.9522
4 0 5.431 -54.31
4 0 8.1465 -51.5945
4 2.7155 5.431 -51.5945
4 2.7155 8.1465 -54.31
4 1.35775 6.78875 -52.9522
4 1.35775 9.50425 -50.2368
4 4.07325 6.78875 -50.2368
4 4.07325 9.50425 -52.9522
4 5.431 5.431 -54.31
4 5.431 8.1465 -51.5945
4 8.1465 5.431 -51.5945
4 8.1465 8.1465 -54.31
4 6.78875 6.78875 -52.9522
4 6.78875 9.50425 -50.2368
4 9.50425 6.78875 -50.2368
4 9.50425 9.50425 -52.9522
4 10.862 5.431 -54.31
4 10.862 8.1465 -51.5945
4 13.5775 5.431 -51.5945
4 13.5775 8.1465 -54.31
4 12.2197 6.78875 -52.9522
4 12.2197 9.50425 -50.2368
4 14.9352 6.78875 -50.2368
4 14.9352 9.50425 -52.9522
4 16.293 5.431 -54.31
4 16.293 8.1465 -51.5945
4 19.0085 5.431 -51.5945
4 19.0085 8.1465 -54.31
4 17.6507 6.78875 -52.9522
4 17.6507 9.50425 -50.2368
4 20.3663 6.78875 -50.2368
4 20.3663 9.50425 -52.9522
4 21.724 5.431 -54.31
4 21.724 8.1465 -51.5945
4 24.4395 5.431 -51.5945
4 24.4395 8.1465 -54.31
4 23.0817 6.78875 -52.9522
4 23.0817 9.50425 -50.2368
4 25.7973 6.78875 -50.2368
4 25.7973 9.50425 -52.9522
4 27.155 5.431 -54.31
4 27.155 8.1465 -51.5945
4 29.8705 5.431 -51.5945
4 29.8705 8.1465 -54.31
4 28.5128 6.78875 -52.9522
4 28.5128 9.50425 -50.2368
4 31.2282 6.78875 -50.2368
4 31.2282 9.50425 -52.9522
4 32.586 5.431 -54.31
4 32.586 8.1465 -51.5945
4 35.3015 5.431 -51.5945
4 35.3015 8.1465 -54.31
4 33.9438 6.78875 -52.9522
4 33.9438 9.50425 -50.2368
4 36.6593 6.78875 -50.2368
4 36.6593 9.50425 -52.9522
4 38.017 5.431 -54.31
4 38.017 8.1465 -51.5945
4 40.7325 5.431 -51.5945
4 40.7325 8.1465 -54.31
4 39.3747 6.78875 -52.9522
4 39.3747 9.50425 -50.2368
4 42.0902 6.78875 -50.2368
4 42.0902 9.50425 -52.9522
4 43.448 5.431 -54.31
4 43.448 8.1465 -51.5945
4 46.1635 5.431 -51.5945
4 46.1635 8.1465 -54.31
4 44.8058 6.78875 -52.9522
4 44.8058 9.50425 -50.2368
4 47.5213 6.78875 -50.2368
4 47.5213 9.50425 -52.9522
4 48.879 5.431 -54.31
4 48.879 8.1465 -51.5945
4 51.5945 5.431 -51.5945
4 51.5945 8.1465 -54.31
4 50.2368 6.78875 -52.9522
4 50.2368 9.50425 -50.2368
4 52.9522 6.78875 -50.2368
4 52.9522 9.50425 -52.9522
4 0 10.862 -54.31
4 0 13.5775 -51.5945
4 2.7155 10.862 -51.5945
4 2.7155 13.5775 -54.31
4 1.35775 12.2197 -52.9522
4 1.35775 14.9352 -50.2368
4 4.07325 12.2197 -50.2368
4 4.07325 14.9352 -52.9522
4 5.431 10.862 -54.31
4 5.431 13.5775 -51.5945
4 8.1465 10.862 -51.5945
4 8.1465 13.5775 -54.31
4 6.78875 12.2197 -52.9522
4 6.78875 14.9352 -50.2368
4 9.50425 12.2197 -50.2368
4 9.50425 14.9352 -52.9522
4 10.862 10.862 -54.31
4 10.862 13.5775 -51.5945
4 13.5775 10.862 -51.5945
4 13.5775 13.5775 -54.31
4 12.2197 12.2197 -52.9522
4 12.2197 14.9352 -50.2368
4 14.9352 12.2197 -50.2368
4 14.9352 14.9352 -52.9522
4 16.293 10.862 -54.31
4 16.293 13.5775 -51.5945
4 19.0085 10.862 -51.5945
4 19.0085 13.5775 -54.31
4 17.6507 12.2197 -52.9522
4 17.6507 14.9352 -50.2368
4 20.3663 12.2197 -50.2368
4 20.3663 14.9352 -52.9522
4 21.724 10.862 -54.31
4 21.724 13.5775 -51.5945
4 24.4395 10.862 -51.5945
4 24.4395 13.5775 -54.31
4 23.0817 12.2197 -52.9522
4 23.0817 14.9352 -50.2368
4 25.7973 12.2197 -50.2368
4 25.7973 14.9352 -52.9522
4 27.155 10.862 -54.31
4 27.155 13.5775 -51.5945
4 29.8705 10.862 -51.5945
4 29.8705 13.5775 -54.31
4 28.5128 12.2197 -52.9522
4 28.5128 14.9352 -50.2368
4 31.2282 12.2197 -50.2368
4 31.2282 14.9352 -52.9522
4 32.586 10.862 -54.31
4 32.586 13.5775 -51.5945
4 35.3015 10.862 -51.5945
4 35.3015 13.5775 -54.31
4 33.9438 12.2197 -52.9522
4 33.9438 14.9352 -50.2368
4 36.6593 12.2197 -50.2368
4 36.6593 14.9352 -52.9522
4 38.017 10.862 -54.31
4 38.017 13.5775 -51.5945
4 40.7325 10.862 -51.5945
4 40.7325 13.5775 -54.31
4 39.3747 12.2197 -52.9522
4 39.3747 14.9352 -50.2368
4 42.0902 12.2197 -50.2368
4 42.0902 14.9352 -52.9522
4 43.448 10.862 -54.31
4 43.448 13.5775 -51.5945
4 46.1635 10.862 -51.5945
4 46.1635 13.5775 -54.31
4 44.8058 12.2197 -52.9522
4 44.8058 14.9352 -50.2368
4 47.5213 12.2197 -50.2368
4 47.5213 14.9352 -52.9522
4 48.879 10.862 -54.31
4 48.879 13.5775 -51.5945
4 51.5945 10.862 -51.5945
4 51.5945 13.5775 -54.31
4 50.2368 12.2197 -52.9522
4 50.2368 14.9352 -50.2368
4 52.9522 12.2197 -50.2368
4 52.9522 14.9352 -52.9522
4 0 16.293 -54.31
4 0 19.0085 -51.5945
4 2.7155 16.293 -51.5945
4 2.7155 19.0085 -54.31
4 1.35775 17.6507 -52.9522
4 1.35775 20.3663 -50.2368
4 4.07325 17.6507 -50.2368
4 4.07325 20.3663 -52.9522
4 5.431 16.293 -54.31
4 5.431 19.0085 -51.5945
4 8.1465 16.293 -51.5945
4 8.1465 19.0085 -54.31
4 6.78875 17.6507 -52.9522
4 6.78875 20.3663 -50.2368
4 9.50425 17.6507 -50.2368
4 9.50425 20.3663 -52.9522
4 10.862 16.293 -54.31
4 10.862 19.0085 -51.5945
4 13.5775 16.293 -51.5945
4 13.5775 19.0085 -54.31
4 12.2197 17.6507 -52.9522
4 12.2197 20.3663 -50.2368
4 14.9352 17.6507 -50.2368
4 14.9352 20.3663 -52.9522
4 16.293 16.293 -54.31
4 16.293 19.0085 -51.5945
4 19.0085 16.293 -51.5945
4 19.0085 19.0085 -54.31
4 17.6507 17.6507 -52.9522
4 17.6507 20.3663 -50.2368
4 20.3663 17.6507 -50.2368
4 20.3663 20.3663 -52.9522
4 21.724 16.293 -54.31
4 21.724 19.0085 -51.5945
4 24.4395 16.293 -51.5945
4 24.4395 19.0085 -54.31
4 23.0817 17.6507 -52.9522
4 23.0817 20.3663 -50.2368
4 25.7973 17.6507 -50.2368
4 25.7973 20.3663 -52.9522
4 27.155 16.293 -54.31
4 27.155 19.0085 -51.5945
4 29.8705 16.293 -51.5945
4 29.8705 19.0085 -54.31
4 28.5128 17.6507 -52.9522
4 28.5128 20.3663 -50.2368
4 31.2282 17.6507 -50.2368
4 31.2282 20.3663 -52.9522
4 32.586 16.293 -54.31
4 32.586 19.0085 -51.5945
4 35.3015 16.293 -51.5945
4 35.3015 19.0085 -54.31
4 33.9438 17.6507 -52.9522
4 33.9438 20.3663 -50.2368
4 36.6593 17.6507 -50.2368
4 36.6593 20.3663 -52.9522
4 38.017 16.293 -54.31
4 38.017 19.0085 -51.5945
4 40.7325 16.293 -51.5945
4 40.7325 19.0085 -54.31
4 39.3747 17.6507 -52.9522
4 39.3747 20.3663 -50.2368
4 42.0902 17.6507 -50.2368
4 42.0902 20.3663 -52.9522
4 43.448 16.293 -54.31
4 43.448 19.0085 -51.5945
4 46.1635 16.293 -51.5945
4 46.1635 19.0085 -54.31
4 44.8058 17.6507 -52.9522
4 44.8058 20.3663 -50.2368
4 47.5213 17.6507 -50.2368
4 47.5213 20.3663 -52.9522
4 48.879 16.293 -54.31
4 48.879 19.0085 -51.5945
4 51.5945 16.293 -51.5945
4 51.5945 19.0085 -54.31
4 50.2368 17.6507 -52.9522
4 50.2368 20.3663 -50.2368
4 52.9522 17.6507 -50.2368
4 52.9522 20.3663 -52.9522
4 0 21.724 -54.31
4 0 24.4395 -51.5945
4 2.7155 21.724 -51.5945
4 2.7155 24.4395 -54.31
4 1.35775 23.0817 -52.9522
4 1.35775 25.7973 -50.2368
4 4.07325 23.0817 -50.2368
4 4.07325 25.7973 -52.9522
4 5.431 21.724 -54.31
4 5.431 24.4395 -51.5945
4 8.1465 21.724 -51.5945
4 8.1465 24.4395 -54.31
4 6.78875 23.0817 -52.9522
4 6.78875 25.7973 -50.2368
4 9.50425 23.0817 -50.2368
4 9.50425 25.7973 -52.9522
4 10.862 21.724 -54.31
4 10.862 24.4395 -51.5945
4 13.5775 21.724 -51.5945
4 13.5775 24.4395 -54.31
4 12.2197 23.0817 -52.9522
4 12.2197 25.7973 -50.2368
4 14.9352 23.0817 -50.2368
4 14.9352 25.7973 -52.9522
4 16.293 21.724 -54.31
4 16.293 24.4395 -51.5945
4 19.0085 21.724 -51.5945
4 19.0085 24.4395 -54.31
4 17.6507 23.0817 -52.9522
4 17.6507 25.7973 -50.2368
4 20.3663 23.0817 -50.2368
4 20.3663 25.7973 -52.9522
4 21.724 21.724 -54.31
4 21.724 24.4395 -51.5945
4 24.4395 21.724 -51.5945
4 24.4395 24.4395 -54.31
4 23.0817 23.0817 -52.9522
4 23.0817 25.7973 -50.2368
4 25.7973 23.0817 -50.2368
4 25.7973 25.7973 -52.9522
4 27.155 21.724 -54.31
4 27.155 24.4395 -51.5945
4 29.8705 21.724 -51.5945
4 29.8705 24.4395 -54.31
4 28.5128 23.0817 -52.9522
4 28.5128 25.7973 -50.2368
4 31.2282 23.0817 -50.2368
4 31.2282 25.7973 -52.9522
4 32.586 21.724 -54.31
4 32.586 24.4395 -51.5945
4 35.3015 21.724 -51.5945
4 35.3015 24.4395 -54.31
4 33.9438 23.0817 -52.9522
4 33.9438 25.7973 -50.2368
4 36.6593 23.0817 -50.2368
4 36.6593 25.7973 -52.9522
4 38.017 21.724 -54.31
4 38.017 24.4395 -51.5945
4 40.7325 21.724 -51.5945
4 40.7325 24.4395 -54.31
4 39.3747 23.0817 -52.9522
4 39.3747 25.7973 -50.2368
4 42.0902 23.0817 -50.2368
4 42.0902 25.7973 -52.9522
4 43.448 21.724 -54.31
4 43.448 24.4395 -51.5945
4 46.1635 21.724 -51.5945
4 46.1635 24.4395 -54.31
4 44.8058 23.0817 -52.9522
4 44.8058 25.7973 -50.2368
4 47.5213 23.0817 -50.2368
4 47.5213 25.7973 -52.9522
4 48.879 21.724 -54.31
4 48.879 24.4395 -51.5945
4 51.5945 21.724 -51.5945
4 51.5945 24.4395 -54.31
4 50.2368 23.0817 -52.9522
4 50.2368 25.7973 -50.2368
4 52.9522 23.0817 -50.2368
4 52.9522 25.7973 -52.9522
4 0 27.155 -54.31
4 0 29.8705 -51.5945
4 2.7155 27.155 -51.5945
4 2.7155 29.8705 -54.31
4 1.35775 28.5128 -52.9522
4 1.35775 31.2282 -50.2368
4 4.07325 28.5128 -50.2368
4 4.07325 31.2282 -52.9522
4 5.431 27.155 -54.31
4 5.431 29.8705 -51.5945
4 8.1465 27.155 -51.5945
4 8.1465 29.8705 -54.31
4 6.78875 28.5128 -52.9522
4 6.78875 31.2282 -50.2368
4 9.50425 28.5128 -50.2368
4 9.50425 31.2282 -52.9522
4 10.862 27.155 -54.31
4 10.862 29.8705 -51.5945
4 13.5775 27.155 -51.5945
4 13.5775 29.8705 -54.31
4 12.2197 28.5128 -52.9522
4 12.2197 31.2282 -50.2368
4 14.9352 28.5128 -50.2368
4 14.9352 31.2282 -52.9522
4 16.293 27.155 -54.31
4 16.293 29.8705 -51.5945
4 19.0085 27.155 -51.5945
4 19.0085 29.8705 -54.31
4 17.6507 28.5128 -52.9522
4 17.6507 31.2282 -50.2368
4 20.3663 28.5128 -50.2368
4 20.3663 31.2282 -52.9522
4 21.724 27.155 -54.31
4 21.724 29.8705 -51.5945
4 24.4395 27.155 -51.5945
4 24.4395 29.8705 -54.31
4 23.0817 28.5128 -52.9522
4 23.0817 31.2282 -50.2368
4 25.7973 28.5128 -50.2368
4 25.7973 31.2282 -52.9522
4 27.155 27.155 -54.31
4 27.155 29.8705 -51.5945
4 29.8705 27.155 -51.5945
4 29.8705 29.8705 -54.31
4 28.5128 28.5128 -52.9522
4 28.5128 31.2282 -50.2368
4 31.2282 28.5128 -50.2368
4 31.2282 31.2282 -52.9522
4 32.586 27.155 -54.31
4 32.586 29.8705 -51.5945
4 35.3015 27.155 -51.5945
4 35.3015 29.8705 -54.31
4 33.9438 28.5128 -52.9522
4 33.9438 31.2282 -50.2368
4 36.6593 28.5128 -50.2368
4 36.6593 31.2282 -52.9522
4 38.017 27.155 -54.31
4 38.017 29.8705 -51.5945
4 40.7325 27.155 -51.5945
4 40.7325 29.8705 -54.31
4 39.3747 28.5128 -52.9522
4 39.3747 31.2282 -50.2368
4 42.0902 28.5128 -50.2368
4 42.0902 31.2282 -52.9522
4 43.448 27.155 -54.31
4 43.448 29.8705 -51.5945
4 46.1635 27.155 -51.5945
4 46.1635 29.8705 -54.31
4 44.8058 28.5128 -52.9522
4 44.8058 31.2282 -50.2368
4 47.5213 28.5128 -50.2368
4 47.5213 31.2282 -52.9522
4 48.879 27.155 -54.31
4 48.879 29.8705 -51.5945
4 51.5945 27.155 -51.5945
4 51.5945 29.8705 -54.31
4 50.2368 28.5128 -52.9522
4 50.2368 31.2282 -50.2368
4 52.9522 28.5128 -50.2368
4 52.9522 31.2282 -52.9522
4 0 32.586 -54.31
4 0 35.3015 -51.5945
4 2.7155 32.586 -51.5945
4 2.7155 35.3015 -54.31
4 1.35775 33.9438 -52.9522
4 1.35775 36.6593 -50.2368
4 4.07325 33.9438 -50.2368
4 4.07325 36.6593 -52.9522
4 5.431 32.586 -54.31
4 5.431 35.3015 -51.5945
4 8.1465 32.586 -51.5945
4 8.1465 35.3015 -54.31
4 6.78875 33.9438 -52.9522
4 6.78875 36.6593 -50.2368
4 9.50425 33.9438 -50.2368
4 9.50425 36.6593 -52.9522
4 10.862 32.586 -54.31
4 10.862 35.3015 -51.5945
4 13.5775 32.586 -51.5945
4 13.5775 35.3015 -54.31
4 12.2197 33.9438 -52.9522
4 12.2197 36.6593 -50.2368
4 14.9352 33.9438 -50.2368
4 14.9352 36.6593 -52.9522
4 16.293 32.586 -54.31
4 16.293 35.3015 -51.5945
4 19.0085 32.586 -51.5945
4 19.0085 35.3015 -54.31
4 17.6507 33.9438 -52.9522
4 17.6507 36.6593 -50.2368
4 20.3663 33.9438 -50.2368
4 20.3663 36.6593 -52.9522
4 21.724 32.586 -54.31
4 21.724 35.3015 -51.5945
4 24.4395 32.586 -51.5945
4 24.4395 35.3015 -54.31
4 23.0817 33.9438 -52.9522
4 23.0817 36.6593 -50.2368
4 25.7973 33.9438 -50.2368
4 25.7973 36.6593 -52.9522
4 27.155 32.586 -54.31
4 27.155 35.3015 -51.5945
4 29.8705 32.586 -51.5945
4 29.8705 35.3015 -54.31
4 28.5128 33.9438 -52.9522
4 28.5128 36.6593 -50.2368
4 31.2282 33.9438 -50.2368
4 31.2282 36.6593 -52.9522
4 32.586 32.586 -54.31
4 32.586 35.3015 -51.5945
4 35.3015 32.586 -51.5945
4 35.3015 35.3015 -54.31
4 33.9438 33.9438 -52.9522
4 33.9438 36.6593 -50.2368
4 36.6593 33.9438 -50.2368
4 36.6593 36.6593 -52.9522
4 38.017 32.586 -54.31
4 38.017 35.3015 -51.5945
4 40.7325 32.586 -51.5945
4 40.7325 35.3015 -54.31
4 39.3747 33.9438 -52.9522
4 39.3747 36.6593 -50.2368
4 42.0902 33.9438 -50.2368
4 42.0902 36.6593 -52.9522
4 43.448 32.586 -54.31
4 43.448 35.3015 -51.5945
4 46.1635 32.586 -51.5945
4 46.1635 35.3015 -54.31
4 44.8058 33.9438 -52.9522
4 44.8058 36.6593 -50.2368
4 47.5213 33.9438 -50.2368
4 47.5213 36.6593 -52.9522
4 48.879 32.586 -54.31
4 48.879 35.3015 -51.5945
4 51.5945 32.586 -51.5945
4 51.5945 35.3015 -54.31
4 50.2368 33.9438 -52.9522
4 50.2368 36.6593 -50.2368
4 52.9522 33.9438 -50.2368
4 52.9522 36.6593 -52.9522
4 0 38.017 -54.31
4 0 40.7325 -51.5945
4 2.7155 38.017 -51.5945
4 2.7155 40.7325 -54.31
4 1.35775 39.3747 -52.9522
4 1.35775 42.0902 -50.2368
4 4.07325 39.3747 -50.2368
4 4.07325 42.0902 -52.9522
4 5.431 38.017 -54.31
4 5.431 40.7325 -51.5945
4 8.1465 38.017 -51.5945
4 8.1465 40.7325 -54.31
4 6.78875 39.3747 -52.9522
4 6.78875 42.0902 -50.2368
4 9.50425 39.3747 -50.2368
4 9.50425 42.0902 -52.9522
4 10.862 38.017 -54.31
4 10.862 40.7325 -51.5945
4 13.5775 38.017 -51.5945
4 13.5775 40.7325 -54.31
4 12.2197 39.3747 -52.9522
4 12.2197 42.0902 -50.2368
4 14.9352 39.3747 -50.2368
4 14.9352 42.0902 -52.9522
4 16.293 38.017 -54.31
4 16.293 40.7325 -51.5945
4 19.0085 38.017 -51.5945
4 19.0085 40.7325 -54.31
4 17.6507 39.3747 -52.9522
4 17.6507 42.0902 -50.2368
4 20.3663 39.3747 -50.2368
4 20.3663 42.0902 -52.9522
4 21.724 38.017 -54.31
4 21.724 40.7325 -51.5945
4 24.4395 38.017 -51.5945
4 24.4395 40.7325 -54.31
4 23.0817 39.3747 -52.9522
4 23.0817 42.0902 -50.2368
4 25.7973 39.3747 -50.2368
4 25.7973 42.0902 -52.9522
4 27.155 38.017 -54.31
4 27.155 40.7325 -51.5945
4 29.8705 38.017 -51.5945
4 29.8705 40.7325 -54.31
4 28.5128 39.3747 -52.9522
4 28.5128 42.0902 -50.2368
4 31.2282 39.3747 -50.2368
4 31.2282 42.0902 -52.9522
4 32.586 38.017 -54.31
4 32.586 40.7325 -51.5945
4 35.3015 38.017 -51.5945
4 35.3015 40.7325 -54.31
4 33.9438 39.3747 -52.9522
4 33.9438 42.0902 -50.2368
4 36.6593 39.3747 -50.2368
4 36.6593 42.0902 -52.9522
4 38.017 38.017 -54.31
4 38.017 40.7325 -51.5945
4 40.7325 38.017 -51.5945
4 40.7325 40.7325 -54.31
4 39.3747 39.3747 -52.9522
4 39.3747 42.0902 -50.2368
4 42.0902 39.3747 -50.2368
4 42.0902 42.0902 -52.9522
4 43.448 38.017 -54.31
4 43.448 40.7325 -51.5945
4 46.1635 38.017 -51.5945
4 46.1635 40.7325 -54.31
4 44.8058 39.3747 -52.9522
4 44.8058 42.0902 -50.2368
4 47.5213 39.3747 -50.2368
4 47.5213 42.0902 -52.9522
4 48.879 38.017 -54.31
4 48.879 40.7325 -51.5945
4 51.5945 38.017 -51.5945
4 51.5945 40.7325 -54.31
4 50.2368 39.3747 -52.9522
4 50.2368 42.0902 -50.2368
4 52.9522 39.3747 -50.2368
4 52.9522 42.0902 -52.9522
4 0 43.448 -54.31
4 0 46.1635 -51.5945
4 2.7155 43.448 -51.5945
4 2.7155 46.1635 -54.31
4 1.35775 44.8058 -52.9522
4 1.35775 47.5213 -50.2368
4 4.07325 44.8058 -50.2368
4 4.07325 47.5213 -52.9522
4 5.431 43.448 -54.31
4 5.431 46.1635 -51.5945
4 8.1465 43.448 -51.5945
4 8.1465 46.1635 -54.31
4 6.78875 44.8058 -52.9522
4 6.78875 47.5213 -50.2368
4 9.50425 44.8058 -50.2368
4 9.50425 47.5213 -52.9522
4 10.862 43.448 -54.31
4 10.862 46.1635 -51.5945
4 13.5775 43.448 -51.5945
4 13.5775 46.1635 -54.31
4 12.2197 44.8058 -52.9522
4 12.2197 47.5213 -50.2368
4 14.9352 44.8058 -50.2368
4 14.9352 47.5213 -52.9522
4 16.293 43.448 -54.31
4 16.293 46.1635 -51.5945
4 19.0085 43.448 -51.5945
4 19.0085 46.1635 -54.31
4 17.6507 44.8058 -52.9522
4 17.6507 47.5213 -50.2368
4 20.3663 44.8058 -50.2368
4 20.3663 47.5213 -52.9522
4 21.724 43.448 -54.31
4 21.724 46.1635 -51.5945
4 24.4395 43.448 -51.5945
4 24.4395 46.1635 -54.31
4 23.0817 44.8058 -52.9522
4 23.0817 47.5213 -50.2368
4 25.7973 44.8058 -50.2368
4 25.7973 47.5213 -52.9522
4 27.155 43.448 -54.31
4 27.155 46.1635 -51.5945
4 29.8705 43.448 -51.5945
4 29.8705 46.1635 -54.31
4 28.5128 44.8058 -52.9522
4 28.5128 47.5213 -50.2368
4 31.2282 44.8058 -50.2368
4 31.2282 47.5213 -52.9522
4 32.586 43.448 -54.31
4 32.586 46.1635 -51.5945
4 35.3015 43.448 -51.5945
4 35.3015 46.1635 -54.31
4 33.9438 44.8058 -52.9522
4 33.9438 47.5213 -50.2368
4 36.6593 44.8058 -50.2368
4 36.6593 47.5213 -52.9522
4 38.017 43.448 -54.31
4 38.017 46.1635 -51.5945
4 40.7325 43.448 -51.5945
4 40.7325 46.1635 -54.31
4 39.3747 44.8058 -52.9522
4 39.3747 47.5213 -50.2368
4 42.0902 44.8058 -50.2368
4 42.0902 47.5213 -52.9522
4 43.448 43.448 -54.31
4 43.448 46.1635 -51.5945
4 46.1635 43.448 -51.5945
4 46.1635 46.1635 -54.31
4 44.8058 44.8058 -52.9522
4 44.8058 47.5213 -50.2368
4 47.5213 44.8058 -50.2368
4 47.5213 47.5213 -52.9522
4 48.879 43.448 -54.31
4 48.879 46.1635 -51.5945
4 51.5945 43.448 -51.5945
4 51.5945 46.1635 -54.31
4 50.2368 44.8058 -52.9522
4 50.2368 47.5213 -50.2368
4 52.9522 44.8058 -50.2368
4 52.9522 47.5213 -52.9522
4 0 48.879 -54.31
4 0 51.5945 -51.5945
4 2.7155 48.879 -51.5945
4 2.7155 51.5945 -54.31
4 1.35775 50.2368 -52.9522
4 1.35775 52.9522 -50.2368
4 4.07325 50.2368 -50.2368
4 4.07325 52.9522 -52.9522
4 5.431 48.879 -54.31
4 5.431 51.5945 -51.5945
4 8.1465 48.879 -51.5945
4 8.1465 51.5945 -54.31
4 6.78875 50.2368 -52.9522
4 6.78875 52.9522 -50.2368
4 9.50425 50.2368 -50.2368
4 9.50425 52.9522 -52.9522
4 10.862 48.879 -54.31
4 10.862 51.5945 -51.5945
4 13.5775 48.879 -51.5945
4 13.5775 51.5945 -54.31
4 12.2197 50.2368 -52.9522
4 12.2197 52.9522 -50.2368
4 14.9352 50.2368 -50.2368
4 14.9352 52.9522 -52.9522
4 16.293 48.879 -54.31
4 16.293 51.5945 -51.5945
4 19.0085 48.879 -51.5945
4 19.0085 51.5945 -54.31
4 17.6507 50.2368 -52.9522
4 17.6507 52.9522 -50.2368
4 20.3663 50.2368 -50.2368
4 20.3663 52.9522 -52.9522
4 21.724 48.879 -54.31
4 21.724 51.5945 -51.5945
4 24.4395 48.879 -51.5945
4 24.4395 51.5945 -54.31
4 23.0817 50.2368 -52.9522
4 23.0817 52.9522 -50.2368
4 25.7973 50.2368 -50.2368
4 25.7973 52.9522 -52.9522
4 27.155 48.879 -54.31
4 27.155 51.5945 -51.5945
4 29.8705 48.879 -51.5945
4 29.8705 51.5945 -54.31
4 28.5128 50.2368 -52.9522
4 28.5128 52.9522 -50.2368
4 31.2282 50.2368 -50.2368
4 31.2282 52.9522 -52.9522
4 32.586 48.879 -54.31
4 32.586 51.5945 -51.5945
4 35.3015 48.879 -51.5945
4 35.3015 51.5945 -54.31
4 33.9438 50.2368 -52.9522
4 33.9438 52.9522 -50.2368
4 36.6593 50.2368 -50.2368
4 36.6593 52.9522 -52.9522
4 38.017 48.879 -54.31
4 38.017 51.5945 -51.5945
4 40.7325 48.879 -51.5945
4 40.7325 51.5945 -54.31
4 39.3747 50.2368 -52.9522
4 39.3747 52.9522 -50.2368
4 42.0902 50.2368 -50.2368
4 42.0902 52.9522 -52.9522
4 43.448 48.879 -54.31
4 43.448 51.5945 -51.5945
4 46.1635 48.879 -51.5945
4 46.1635 51.5945 -54.31
4 44.8058 50.2368 -52.9522
4 44.8058 52.9522 -50.2368
4 47.5213 50.2368 -50.2368
4 47.5213 52.9522 -52.9522
4 48.879 48.879 -54.31
4 48.879 51.5945 -51.5945
4 51.5945 48.879 -51.5945
4 51.5945 51.5945 -54.31
4 50.2368 50.2368 -52.9522
4 50.2368 52.9522 -50.2368
4 52.9522 50.2368 -50.2368
4 52.9522 52.9522 -52.9522
4 0 0 -48.879
3 2.64357 2.65939 -36.9092
4 2.7155 2.7155 -48.879
4 1.35775 1.35775 -47.5213
3 1.04311 6.94692 -35.4953
3 3.81633 4.13179 -35.6284
4 4.07325 4.07325 -47.5213
4 5.431 0 -48.879
3 5.37207 5.39406 -36.8374
3 8.03532 2.65269 -36.8641
4 8.1465 2.7155 -48.879
4 6.78875 1.35775 -47.5213
3 6.65308 6.77396 -35.5603
3 9.36603 4.02273 -35.5078
4 9.50425 4.07325 -47.5213
4 10.862 0 -48.879
3 10.7872 5.41032 -36.8303
3 13.4519 2.71292 -36.7644
4 13.5775 2.7155 -48.879
4 12.2197 1.35775 -47.5213
3 12.0713 6.72274 -35.38
3 14.8824 4.01215 -35.411
4 14.9352 4.07325 -47.5213
4 16.293 0 -48.879
3 16.2226 5.38031 -36.8083
1 18.966 2.72439 -36.8213
4 19.0085 2.7155 -48.879
4 17.6507 1.35775 -47.5213
1 17.5834 6.78442 -35.4949
1 20.3091 4.12909 -35.478
4 20.3663 4.07325 -47.5213
4 21.724 0 -48.879
1 21.7989 5.4861 -36.8338
1 24.4442 2.76208 -36.8071
4 24.4395 2.7155 -48.879
4 23.0817 1.35775 -47.5213
1 23.0782 6.78898 -35.3618
1 25.7814 4.10043 -35.4057
4 25.7973 4.07325 -47.5213
4 27.155 0 -48.879
1 27.1319 5.45019 -36.7727
1 29.8792 2.73227 -36.797
4 29.8705 2.7155 -48.879
4 28.5128 1.35775 -47.5213
1 28.4997 6.83209 -35.4891
1 31.1861 4.14178 -35.4153
4 31.2282 4.07325 -47.5213
4 32.586 0 -48.879
1 32.5258 5.39383 -36.8509
1 35.3551 2.82529 -36.7762
4 35.3015 2.7155 -48.879
4 33.9438 1.35775 -47.5213
1 33.9537 6.78626 -35.5258
1 36.7474 4.07137 -35.4592
4 36.6593 4.07325 -47.5213
4 38.017 0 -48.879
1 38.0211 5.4553 -36.7677
1 40.7285 2.71232 -36.8065
4 40.7325 2.7155 -48.879
4 39.3747 1.35775 -47.5213
1 39.4098 6.73679 -35.561
1 42.1547 4.02051 -35.4762
4 42.0902 4.07325 -47.5213
4 43.448 0 -48.879
1 43.5408 5.43192 -36.8169
1 46.2684 2.71457 -36.7965
4 46.1635 2.7155 -48.879
4 44.8058 1.35775 -47.5213
1 44.7885 6.78148 -35.3486
1 47.6243 4.09935 -35.4298
4 47.5213 4.07325 -47.5213
4 48.879 0 -48.879
1 48.9993 5.49347 -36.8785
1 51.5895 2.7952 -36.8056
4 51.5945 2.7155 -48.879
4 50.2368 1.35775 -47.5213
1 50.2934 6.90544 -35.4383
1 52.9269 4.05933 -35.4011
4 52.9522 4.07325 -47.5213
4 0 5.431 -48.879
3 2.63221 8.11477 -36.811
4 2.7155 8.1465 -48.879
4 1.35775 6.78875 -47.5213
3 0.973922 11.9445 -35.9577
3 3.84569 9.62946 -35.514
4 4.07325 9.50425 -47.5213
4 5.431 5.431 -48.879
3 5.34938 10.7685 -36.8133
3 8.10693 8.14125 -36.9029
4 8.1465 8.1465 -48.879
4 6.78875 6.78875 -47.5213
3 6.59934 12.1875 -35.4046
3 9.33375 9.57477 -35.4956
4 9.50425 9.50425 -47.5213
4 10.862 5.431 -48.879
3 10.7403 10.8394 -36.8009
3 13.4886 8.10618 -36.8152
4 13.5775 8.1465 -48.879
4 12.2197 6.78875 -47.5213
3 12.1361 12.1782 -35.4586
3 14.9188 9.44547 -35.5193
4 14.9352 9.50425 -47.5213
4 16.293 5.431 -48.879
3 16.3143 10.7796 -36.8604
1 18.9493 8.15827 -36.6857
4 19.0085 8.1465 -48.879
4 17.6507 6.78875 -47.5213
1 17.5456 12.2067 -35.5187
1 20.3242 9.55451 -35.4403
4 20.3663 9.50425 -47.5213
4 21.724 5.431 -48.879
1 21.7414 10.8866 -36.8167
1 24.4184 8.12417 -36.758
4 24.4395 8.1465 -48.879
4 23.0817 6.78875 -47.5213
1 23.1301 12.2292 -35.4841
1 25.8659 9.60119 -35.6188
4 25.7973 9.50425 -47.5213
4 27.155 5.431 -48.879
1 27.249 10.9245 -36.9157
1 29.8917 8.1838 -36.864
4 29.8705 8.1465 -48.879
4 28.5128 6.78875 -47.5213
1 28.6207 12.3481 -35.5859
1 31.3413 9.45771 -35.4902
4 31.2282 9.50425 -47.5213
4 32.586 5.431 -48.879
1 32.6527 10.8799 -36.8626
1 35.3035 8.24289 -36.8928
4 35.3015 8.1465 -48.879
4 33.9438 6.78875 -47.5213
1 33.8707 12.3497 -35.3872
1 36.6443 9.56123 -35.5907
4 36.6593 9.50425 -47.5213
4 38.017 5.431 -48.879
1 38.0967 10.858 -36.8382
1 40.7488 8.21243 -36.8047
4 40.7325 8.1465 -48.879
4 39.3747 6.78875 -47.5213
1 39.3841 12.2488 -35.5329
1 42.1212 9.48023 -35.4432
4 42.0902 9.50425 -47.5213
4 43.448 5.431 -48.879
1 43.4298 10.9094 -36.7003
1 46.146 8.09136 -36.8025
4 46.1635 8.1465 -48.879
4 44.8058 6.78875 -47.5213
1 44.82 12.3003 -35.4386
1 47.5746 9.49108 -35.5302
4 47.5213 9.50425 -47.5213
4 48.879 5.431 -48.879
1 48.8821 10.8511 -36.8252
1 51.7598 8.19216 -36.7928
4 51.5945 8.1465 -48.879
4 50.2368 6.78875 -47.5213
1 50.261 12.241 -35.4209
1 53.0769 9.71464 -35.4831
4 52.9522 9.50425 -47.5213
4 0 10.862 -48.879
3 2.4983 13.4303 -36.8831
4 2.7155 13.5775 -48.879
4 1.35775 12.2197 -47.5213
3 1.04577 17.9499 -35.3324
3 3.81379 15.009 -35.7031
4 4.07325 14.9352 -47.5213
4 5.431 10.862 -48.879
3 5.3598 16.3224 -36.8003
3 8.09976 13.5043 -36.7615
4 8.1465 13.5775 -48.879
4 6.78875 12.2197 -47.5213
3 6.72635 17.6853 -35.4541
3 9.40357 14.8804 -35.4707
4 9.50425 14.9352 -47.5213
4 10.862 10.862 -48.879
3 10.8121 16.2724 -36.8348
3 13.5095 13.5383 -36.804
4 13.5775 13.5775 -48.879
4 12.2197 12.2197 -47.5213
3 12.1585 17.6609 -35.534
3 14.779 14.9317 -35.46
4 14.9352 14.9352 -47.5213
4 16.293 10.862 -48.879
3 16.2474 16.3233 -36.8059
1 19.0261 13.5466 -36.841
4 19.0085 13.5775 -48.879
4 17.6507 12.2197 -47.5213
1 17.6158 17.702 -35.4581
1 20.3062 14.9683 -35.4887
4 20.3663 14.9352 -47.5213
4 21.724 10.862 -48.879
1 21.7771 16.2755 -36.7772
1 24.3781 13.6151 -36.8295
4 24.4395 13.5775 -48.879
4 23.0817 12.2197 -47.5213
1 23.1324 17.6541 -35.3797
1 25.6808 15.0353 -35.5489
4 25.7973 14.9352 -47.5213
4 27.155 10.862 -48.879
1 27.1961 16.3425 -36.851
1 29.9784 13.6225 -36.9176
4 29.8705 13.5775 -48.879
4 28.5128 12.2197 -47.5213
1 28.5533 17.7007 -35.5029
1 31.2071 14.9951 -35.4296
4 31.2282 14.9352 -47.5213
4 32.586 10.862 -48.879
1 32.5179 16.3168 -36.8521
1 35.2758 13.5942 -36.8362
4 35.3015 13.5775 -48.879
4 33.9438 12.2197 -47.5213
1 33.8282 17.7128 -35.4892
1 36.6988 14.9485 -35.4717
4 36.6593 14.9352 -47.5213
4 38.017 10.862 -48.879
1 38.03 16.3002 -36.8653
1 40.823 13.634 -36.8061
4 40.7325 13.5775 -48.879
4 39.3747 12.2197 -47.5213
1 39.4064 17.6889 -35.5409
1 42.2095 15.0929 -35.4277
4 42.0902 14.9352 -47.5213
4 43.448 10.862 -48.879
1 43.5602 16.3876 -36.7897
1 46.2132 13.6749 -36.7876
4 46.1635 13.5775 -48.879
4 44.8058 12.2197 -47.5213
1 44.8224 17.6906 -35.3977
1 47.4966 14.9627 -35.3279
4 47.5213 14.9352 -47.5213
4 48.879 10.862 -48.879
1 48.861 16.353 -36.733
1 51.6627 13.6349 -36.7153
4 51.5945 13.5775 -48.879
4 50.2368 12.2197 -47.5213
1 50.2969 17.7891 -35.3894
1 53.1343 14.7607 -35.3425
4 52.9522 14.9352 -47.5213
4 0 16.293 -48.879
3 2.53453 18.8716 -36.8387
4 2.7155 19.0085 -48.879
4 1.35775 17.6507 -47.5213
3 0.90719 22.1901 -36.4195
3 3.86806 20.2712 -35.6154
4 4.07325 20.3663 -47.5213
4 5.431 16.293 -48.879
3 5.32304 21.6403 -36.8235
3 8.12458 18.971 -36.8629
4 8.1465 19.0085 -48.879
4 6.78875 17.6507 -47.5213
3 6.58702 23.1017 -35.5315
3 9.41729 20.3669 -35.5353
4 9.50425 20.3663 -47.5213
4 10.862 16.293 -48.879
3 10.8149 21.6663 -36.8974
3 13.4669 18.8966 -36.9231
4 13.5775 19.0085 -48.879
4 12.2197 17.6507 -47.5213
3 12.1476 23.0848 -35.6172
3 14.7642 20.3723 -35.518
4 14.9352 20.3663 -47.5213
4 16.293 16.293 -48.879
3 16.2767 21.7038 -36.8418
1 19.0417 18.9769 -36.8575
4 19.0085 19.0085 -48.879
4 17.6507 17.6507 -47.5213
1 17.6326 23.0554 -35.4346
1 20.349 20.4734 -35.4875
4 20.3663 20.3663 -47.5213
4 21.724 16.293 -48.879
1 21.7348 21.7533 -36.8211
1 24.5062 18.9989 -36.8427
4 24.4395 19.0085 -48.879
4 23.0817 17.6507 -47.5213
1 23.1305 23.1716 -35.4796
1 25.7703 20.4415 -35.5356
4 25.7973 20.3663 -47.5213
4 27.155 16.293 -48.879
1 27.2155 21.7596 -36.8057
1 29.9442 19.0302 -36.8902
4 29.8705 19.0085 -48.879
4 28.5128 17.6507 -47.5213
1 28.5446 23.0936 -35.4671
1 31.2023 20.4676 -35.54
4 31.2282 20.3663 -47.5213
4 32.586 16.293 -48.879
1 32.5661 21.7432 -36.9122
1 35.2348 19.001 -36.8632
4 35.3015 19.0085 -48.879
4 33.9438 17.6507 -47.5213
1 33.9253 23.1669 -35.4917
1 36.6332 20.3727 -35.4667
4 36.6593 20.3663 -47.5213
4 38.017 16.293 -48.879
1 38.0422 21.7248 -36.8051
1 40.7473 19.0873 -36.8594
4 40.7325 19.0085 -48.879
4 39.3747 17.6507 -47.5213
1 39.3916 23.1089 -35.4991
1 42.1763 20.4523 -35.4879
4 42.0902 20.3663 -47.5213
4 43.448 16.293 -48.879
1 43.5268 21.7825 -36.8754
1 46.1581 19.0572 -36.76
4 46.1635 19.0085 -48.879
4 44.8058 17.6507 -47.5213
1 44.79 23.1961 -35.4712
1 47.6194 20.5137 -35.5236
4 47.5213 20.3663 -47.5213
4 48.879 16.293 -48.879
1 48.9546 21.7614 -36.8672
1 51.5877 19.0384 -36.8627
4 51.5945 19.0085 -48.879
4 50.2368 17.6507 -47.5213
1 50.2736 23.183 -35.4131
1 52.9757 20.4444 -35.5095
4 52.9522 20.3663 -47.5213
4 0 21.724 -48.879
3 2.37202 24.1141 -36.914
4 2.7155 24.4395 -48.879
4 1.35775 23.0817 -47.5213
3 0.988062 28.9282 -35.4094
3 3.63277 25.695 -35.6602
4 4.07325 25.7973 -47.5213
4 5.431 21.724 -48.879
3 5.26743 26.9597 -36.8682
3 8.05961 24.3228 -36.8401
4 8.1465 24.4395 -48.879
4 6.78875 23.0817 -47.5213
3 6.48768 28.532 -35.6045
3 9.26733 25.7947 -35.6177
4 9.50425 25.7973 -47.5213
4 10.862 21.724 -48.879
3 10.7676 27.1474 -36.8088
3 13.6029 24.4529 -36.8298
4 13.5775 24.4395 -48.879
4 12.2197 23.0817 -47.5213
3 12.0911 28.4489 -35.4259
3 14.918 25.734 -35.4764
4 14.9352 25.7973 -47.5213
4 16.293 21.724 -48.879
3 16.2335 27.2008 -36.7887
1 18.9471 24.3994 -36.866
4 19.0085 24.4395 -48.879
4 17.6507 23.0817 -47.5213
1 17.6856 28.6221 -35.4846
1 20.3463 25.7899 -35.5546
4 20.3663 25.7973 -47.5213
4 21.724 21.724 -48.879
1 21.7438 27.198 -36.8392
1 24.4898 24.5259 -36.8582
4 24.4395 24.4395 -48.879
4 23.0817 23.0817 -47.5213
1 23.0984 28.5433 -35.498
1 25.8873 25.8521 -35.4659
4 25.7973 25.7973 -47.5213
4 27.155 21.724 -48.879
1 27.1736 27.1823 -36.8248
1 29.9191 24.5205 -36.849
4 29.8705 24.4395 -48.879
4 28.5128 23.0817 -47.5213
1 28.5864 28.4938 -35.396
1 31.1832 25.8627 -35.3996
4 31.2282 25.7973 -47.5213
4 32.586 21.724 -48.879
1 32.5392 27.2824 -36.7881