15054
 Atoms. Timestep: 90000
4 0 0 -54.31
4 0 2.7155 -51.5945
4 2.7155 0 -51.5945
4 2.7155 2.7155 -54.31
4 1.35775 1.35775 -52.9522
4 1.35775 4.07325 -50.2368
4 4.07325 1.35775 -50.2368
4 4.07325 4.07325 -52.9522
4 5.431 0 -54.31
4 5.431 2.7155 -51.5945
4 8.1465 0 -51.5945
4 8.1465 2.7155 -54.31
4 6.78875 1.35775 -52.9522
4 6.78875 4.07325 -50.2368
4 9.50425 1.35775 -50.2368
4 9.50425 4.07325 -52.9522
4 10.862 0 -54.31
4 10.862 2.7155 -51.5945
4 13.5775 0 -51.5945
4 13.5775 2.7155 -54.31
4 12.2197 1.35775 -52.9522
4 12.2197 4.07325 -50.2368
4 14.9352 1.35775 -50.2368
4 14.9352 4.07325 -52.9522
4 16.293 0 -54.31
4 16.293 2.7155 -51.5945
4 19.0085 0 -51.5945
4 19.0085 2.7155 -54.31
4 17.6507 1.35775 -52.9522
4 17.6507 4.07325 -50.2368
4 20.3663 1.35775 -50.2368
4 20.3663 4.07325 -52.9522
4 21.724 0 -54.31
4 21.724 2.7155 -51.5945
4 24.4395 0 -51.5945
4 24.4395 2.7155 -54.31
4 23.0817 1.35775 -52.9522
4 23.0817 4.07325 -50.2368
4 25.7973 1.35775 -50.2368
4 25.7973 4.07325 -52.9522
4 27.155 0 -54.31
4 27.155 2.7155 -51.5945
4 29.8705 0 -51.5945
4 29.8705 2.7155 -54.31
4 28.5128 1.35775 -52.9522
4 28.5128 4.07325 -50.2368
4 31.2282 1.35775 -50.2368
4 31.2282 4.07325 -52.9522
4 32.586 0 -54.31
4 32.586 2.7155 -51.5945
4 35.3015 0 -51.5945
4 35.3015 2.7155 -54.31
4 33.9438 1.35775 -52.9522
4 33.9438 4.07325 -50.2368
4 36.6593 1.35775 -50.2368
4 36.6593 4.07325 -52.9522
4 38.017 0 -54.31
4 38.017 2.7155 -51.5945
4 40.7325 0 -51.5945
4 40.7325 2.7155 -54.31
4 39.3747 1.35775 -52.9522
4 39.3747 4.07325 -50.2368
4 42.0902 1.35775 -50.2368
4 42.0902 4.07325 -52.9522
4 43.448 0 -54.31
4 43.448 2.7155 -51.5945
4 46.1635 0 -51.5945
4 46.1635 2.7155 -54.31
4 44.8058 1.35775 -52.9522
4 44.8058 4.07325 -50.2368
4 47.5213 1.35775 -50.2368
4 47.5213 4.07325 -52.9522
4 48.879 0 -54.31
4 48.879 2.7155 -51.5945
4 51.5945 0 -51.5945
4 51.5945 2.7155 -54.31
4 50.2368 1.35775 -52.9522
4 50.2368 4.07325 -50.2368
4 52.9522 1.35775 -50.2368
4 52.9522 4.07325 -52.9522
4 0 5.431 -54.31
4 0 8.1465 -51.5945
4 2.7155 5.431 -51.5945
4 2.7155 8.1465 -54.31
4 1.35775 6.78875 -52.9522
4 1.35775 9.50425 -50.2368
4 4.07325 6.78875 -50.2368
4 4.07325 9.50425 -52.9522
4 5.431 5.431 -54.31
4 5.431 8.1465 -51.5945
4 8.1465 5.431 -51.5945
4 8.1465 8.1465 -54.31
4 6.78875 6.78875 -52.9522
4 6.78875 9.50425 -50.2368
4 9.50425 6.78875 -50.2368
4 9.50425 9.50425 -52.9522
4 10.862 5.431 -54.31
4 10.862 8.1465 -51.5945
4 13.5775 5.431 -51.5945
4 13.5775 8.1465 -54.31
4 12.2197 6.78875 -52.9522
4 12.2197 9.50425 -50.2368
4 14.9352 6.78875 -50.2368
4 14.9352 9.50425 -52.9522
4 16.293 5.431 -54.31
4 16.293 8.1465 -51.5945
4 19.0085 5.431 -51.5945
4 19.0085 8.1465 -54.31
4 17.6507 6.78875 -52.9522
4 17.6507 9.50425 -50.2368
4 20.3663 6.78875 -50.2368
4 20.3663 9.50425 -52.9522
4 21.724 5.431 -54.31
4 21.724 8.1465 -51.5945
4 24.4395 5.431 -51.5945
4 24.4395 8.1465 -54.31
4 23.0817 6.78875 -52.9522
4 23.0817 9.50425 -50.2368
4 25.7973 6.78875 -50.2368
4 25.7973 9.50425 -52.9522
4 27.155 5.431 -54.31
4 27.155 8.1465 -51.5945
4 29.8705 5.431 -51.5945
4 29.8705 8.1465 -54.31
4 28.5128 6.78875 -52.9522
4 28.5128 9.50425 -50.2368
4 31.2282 6.78875 -50.2368
4 31.2282 9.50425 -52.9522
4 32.586 5.431 -54.31
4 32.586 8.1465 -51.5945
4 35.3015 5.431 -51.5945
4 35.3015 8.1465 -54.31
4 33.9438 6.78875 -52.9522
4 33.9438 9.50425 -50.2368
4 36.6593 6.78875 -50.2368
4 36.6593 9.50425 -52.9522
4 38.017 5.431 -54.31
4 38.017 8.1465 -51.5945
4 40.7325 5.431 -51.5945
4 40.7325 8.1465 -54.31
4 39.3747 6.78875 -52.9522
4 39.3747 9.50425 -50.2368
4 42.0902 6.78875 -50.2368
4 42.0902 9.50425 -52.9522
4 43.448 5.431 -54.31
4 43.448 8.1465 -51.5945
4 46.1635 5.431 -51.5945
4 46.1635 8.1465 -54.31
4 44.8058 6.78875 -52.9522
4 44.8058 9.50425 -50.2368
4 47.5213 6.78875 -50.2368
4 47.5213 9.50425 -52.9522
4 48.879 5.431 -54.31
4 48.879 8.1465 -51.5945
4 51.5945 5.431 -51.5945
4 51.5945 8.1465 -54.31
4 50.2368 6.78875 -52.9522
4 50.2368 9.50425 -50.2368
4 52.9522 6.78875 -50.2368
4 52.9522 9.50425 -52.9522
4 0 10.862 -54.31
4 0 13.5775 -51.5945
4 2.7155 10.862 -51.5945
4 2.7155 13.5775 -54.31
4 1.35775 12.2197 -52.9522
4 1.35775 14.9352 -50.2368
4 4.07325 12.2197 -50.2368
4 4.07325 14.9352 -52.9522
4 5.431 10.862 -54.31
4 5.431 13.5775 -51.5945
4 8.1465 10.862 -51.5945
4 8.1465 13.5775 -54.31
4 6.78875 12.2197 -52.9522
4 6.78875 14.9352 -50.2368
4 9.50425 12.2197 -50.2368
4 9.50425 14.9352 -52.9522
4 10.862 10.862 -54.31
4 10.862 13.5775 -51.5945
4 13.5775 10.862 -51.5945
4 13.5775 13.5775 -54.31
4 12.2197 12.2197 -52.9522
4 12.2197 14.9352 -50.2368
4 14.9352 12.2197 -50.2368
4 14.9352 14.9352 -52.9522
4 16.293 10.862 -54.31
4 16.293 13.5775 -51.5945
4 19.0085 10.862 -51.5945
4 19.0085 13.5775 -54.31
4 17.6507 12.2197 -52.9522
4 17.6507 14.9352 -50.2368
4 20.3663 12.2197 -50.2368
4 20.3663 14.9352 -52.9522
4 21.724 10.862 -54.31
4 21.724 13.5775 -51.5945
4 24.4395 10.862 -51.5945
4 24.4395 13.5775 -54.31
4 23.0817 12.2197 -52.9522
4 23.0817 14.9352 -50.2368
4 25.7973 12.2197 -50.2368
4 25.7973 14.9352 -52.9522
4 27.155 10.862 -54.31
4 27.155 13.5775 -51.5945
4 29.8705 10.862 -51.5945
4 29.8705 13.5775 -54.31
4 28.5128 12.2197 -52.9522
4 28.5128 14.9352 -50.2368
4 31.2282 12.2197 -50.2368
4 31.2282 14.9352 -52.9522
4 32.586 10.862 -54.31
4 32.586 13.5775 -51.5945
4 35.3015 10.862 -51.5945
4 35.3015 13.5775 -54.31
4 33.9438 12.2197 -52.9522
4 33.9438 14.9352 -50.2368
4 36.6593 12.2197 -50.2368
4 36.6593 14.9352 -52.9522
4 38.017 10.862 -54.31
4 38.017 13.5775 -51.5945
4 40.7325 10.862 -51.5945
4 40.7325 13.5775 -54.31
4 39.3747 12.2197 -52.9522
4 39.3747 14.9352 -50.2368
4 42.0902 12.2197 -50.2368
4 42.0902 14.9352 -52.9522
4 43.448 10.862 -54.31
4 43.448 13.5775 -51.5945
4 46.1635 10.862 -51.5945
4 46.1635 13.5775 -54.31
4 44.8058 12.2197 -52.9522
4 44.8058 14.9352 -50.2368
4 47.5213 12.2197 -50.2368
4 47.5213 14.9352 -52.9522
4 48.879 10.862 -54.31
4 48.879 13.5775 -51.5945
4 51.5945 10.862 -51.5945
4 51.5945 13.5775 -54.31
4 50.2368 12.2197 -52.9522
4 50.2368 14.9352 -50.2368
4 52.9522 12.2197 -50.2368
4 52.9522 14.9352 -52.9522
4 0 16.293 -54.31
4 0 19.0085 -51.5945
4 2.7155 16.293 -51.5945
4 2.7155 19.0085 -54.31
4 1.35775 17.6507 -52.9522
4 1.35775 20.3663 -50.2368
4 4.07325 17.6507 -50.2368
4 4.07325 20.3663 -52.9522
4 5.431 16.293 -54.31
4 5.431 19.0085 -51.5945
4 8.1465 16.293 -51.5945
4 8.1465 19.0085 -54.31
4 6.78875 17.6507 -52.9522
4 6.78875 20.3663 -50.2368
4 9.50425 17.6507 -50.2368
4 9.50425 20.3663 -52.9522
4 10.862 16.293 -54.31
4 10.862 19.0085 -51.5945
4 13.5775 16.293 -51.5945
4 13.5775 19.0085 -54.31
4 12.2197 17.6507 -52.9522
4 12.2197 20.3663 -50.2368
4 14.9352 17.6507 -50.2368
4 14.9352 20.3663 -52.9522
4 16.293 16.293 -54.31
4 16.293 19.0085 -51.5945
4 19.0085 16.293 -51.5945
4 19.0085 19.0085 -54.31
4 17.6507 17.6507 -52.9522
4 17.6507 20.3663 -50.2368
4 20.3663 17.6507 -50.2368
4 20.3663 20.3663 -52.9522
4 21.724 16.293 -54.31
4 21.724 19.0085 -51.5945
4 24.4395 16.293 -51.5945
4 24.4395 19.0085 -54.31
4 23.0817 17.6507 -52.9522
4 23.0817 20.3663 -50.2368
4 25.7973 17.6507 -50.2368
4 25.7973 20.3663 -52.9522
4 27.155 16.293 -54.31
4 27.155 19.0085 -51.5945
4 29.8705 16.293 -51.5945
4 29.8705 19.0085 -54.31
4 28.5128 17.6507 -52.9522
4 28.5128 20.3663 -50.2368
4 31.2282 17.6507 -50.2368
4 31.2282 20.3663 -52.9522
4 32.586 16.293 -54.31
4 32.586 19.0085 -51.5945
4 35.3015 16.293 -51.5945
4 35.3015 19.0085 -54.31
4 33.9438 17.6507 -52.9522
4 33.9438 20.3663 -50.2368
4 36.6593 17.6507 -50.2368
4 36.6593 20.3663 -52.9522
4 38.017 16.293 -54.31
4 38.017 19.0085 -51.5945
4 40.7325 16.293 -51.5945
4 40.7325 19.0085 -54.31
4 39.3747 17.6507 -52.9522
4 39.3747 20.3663 -50.2368
4 42.0902 17.6507 -50.2368
4 42.0902 20.3663 -52.9522
4 43.448 16.293 -54.31
4 43.448 19.0085 -51.5945
4 46.1635 16.293 -51.5945
4 46.1635 19.0085 -54.31
4 44.8058 17.6507 -52.9522
4 44.8058 20.3663 -50.2368
4 47.5213 17.6507 -50.2368
4 47.5213 20.3663 -52.9522
4 48.879 16.293 -54.31
4 48.879 19.0085 -51.5945
4 51.5945 16.293 -51.5945
4 51.5945 19.0085 -54.31
4 50.2368 17.6507 -52.9522
4 50.2368 20.3663 -50.2368
4 52.9522 17.6507 -50.2368
4 52.9522 20.3663 -52.9522
4 0 21.724 -54.31
4 0 24.4395 -51.5945
4 2.7155 21.724 -51.5945
4 2.7155 24.4395 -54.31
4 1.35775 23.0817 -52.9522
4 1.35775 25.7973 -50.2368
4 4.07325 23.0817 -50.2368
4 4.07325 25.7973 -52.9522
4 5.431 21.724 -54.31
4 5.431 24.4395 -51.5945
4 8.1465 21.724 -51.5945
4 8.1465 24.4395 -54.31
4 6.78875 23.0817 -52.9522
4 6.78875 25.7973 -50.2368
4 9.50425 23.0817 -50.2368
4 9.50425 25.7973 -52.9522
4 10.862 21.724 -54.31
4 10.862 24.4395 -51.5945
4 13.5775 21.724 -51.5945
4 13.5775 24.4395 -54.31
4 12.2197 23.0817 -52.9522
4 12.2197 25.7973 -50.2368
4 14.9352 23.0817 -50.2368
4 14.9352 25.7973 -52.9522
4 16.293 21.724 -54.31
4 16.293 24.4395 -51.5945
4 19.0085 21.724 -51.5945
4 19.0085 24.4395 -54.31
4 17.6507 23.0817 -52.9522
4 17.6507 25.7973 -50.2368
4 20.3663 23.0817 -50.2368
4 20.3663 25.7973 -52.9522
4 21.724 21.724 -54.31
4 21.724 24.4395 -51.5945
4 24.4395 21.724 -51.5945
4 24.4395 24.4395 -54.31
4 23.0817 23.0817 -52.9522
4 23.0817 25.7973 -50.2368
4 25.7973 23.0817 -50.2368
4 25.7973 25.7973 -52.9522
4 27.155 21.724 -54.31
4 27.155 24.4395 -51.5945
4 29.8705 21.724 -51.5945
4 29.8705 24.4395 -54.31
4 28.5128 23.0817 -52.9522
4 28.5128 25.7973 -50.2368
4 31.2282 23.0817 -50.2368
4 31.2282 25.7973 -52.9522
4 32.586 21.724 -54.31
4 32.586 24.4395 -51.5945
4 35.3015 21.724 -51.5945
4 35.3015 24.4395 -54.31
4 33.9438 23.0817 -52.9522
4 33.9438 25.7973 -50.2368
4 36.6593 23.0817 -50.2368
4 36.6593 25.7973 -52.9522
4 38.017 21.724 -54.31
4 38.017 24.4395 -51.5945
4 40.7325 21.724 -51.5945
4 40.7325 24.4395 -54.31
4 39.3747 23.0817 -52.9522
4 39.3747 25.7973 -50.2368
4 42.0902 23.0817 -50.2368
4 42.0902 25.7973 -52.9522
4 43.448 21.724 -54.31
4 43.448 24.4395 -51.5945
4 46.1635 21.724 -51.5945
4 46.1635 24.4395 -54.31
4 44.8058 23.0817 -52.9522
4 44.8058 25.7973 -50.2368
4 47.5213 23.0817 -50.2368
4 47.5213 25.7973 -52.9522
4 48.879 21.724 -54.31
4 48.879 24.4395 -51.5945
4 51.5945 21.724 -51.5945
4 51.5945 24.4395 -54.31
4 50.2368 23.0817 -52.9522
4 50.2368 25.7973 -50.2368
4 52.9522 23.0817 -50.2368
4 52.9522 25.7973 -52.9522
4 0 27.155 -54.31
4 0 29.8705 -51.5945
4 2.7155 27.155 -51.5945
4 2.7155 29.8705 -54.31
4 1.35775 28.5128 -52.9522
4 1.35775 31.2282 -50.2368
4 4.07325 28.5128 -50.2368
4 4.07325 31.2282 -52.9522
4 5.431 27.155 -54.31
4 5.431 29.8705 -51.5945
4 8.1465 27.155 -51.5945
4 8.1465 29.8705 -54.31
4 6.78875 28.5128 -52.9522
4 6.78875 31.2282 -50.2368
4 9.50425 28.5128 -50.2368
4 9.50425 31.2282 -52.9522
4 10.862 27.155 -54.31
4 10.862 29.8705 -51.5945
4 13.5775 27.155 -51.5945
4 13.5775 29.8705 -54.31
4 12.2197 28.5128 -52.9522
4 12.2197 31.2282 -50.2368
4 14.9352 28.5128 -50.2368
4 14.9352 31.2282 -52.9522
4 16.293 27.155 -54.31
4 16.293 29.8705 -51.5945
4 19.0085 27.155 -51.5945
4 19.0085 29.8705 -54.31
4 17.6507 28.5128 -52.9522
4 17.6507 31.2282 -50.2368
4 20.3663 28.5128 -50.2368
4 20.3663 31.2282 -52.9522
4 21.724 27.155 -54.31
4 21.724 29.8705 -51.5945
4 24.4395 27.155 -51.5945
4 24.4395 29.8705 -54.31
4 23.0817 28.5128 -52.9522
4 23.0817 31.2282 -50.2368
4 25.7973 28.5128 -50.2368
4 25.7973 31.2282 -52.9522
4 27.155 27.155 -54.31
4 27.155 29.8705 -51.5945
4 29.8705 27.155 -51.5945
4 29.8705 29.8705 -54.31
4 28.5128 28.5128 -52.9522
4 28.5128 31.2282 -50.2368
4 31.2282 28.5128 -50.2368
4 31.2282 31.2282 -52.9522
4 32.586 27.155 -54.31
4 32.586 29.8705 -51.5945
4 35.3015 27.155 -51.5945
4 35.3015 29.8705 -54.31
4 33.9438 28.5128 -52.9522
4 33.9438 31.2282 -50.2368
4 36.6593 28.5128 -50.2368
4 36.6593 31.2282 -52.9522
4 38.017 27.155 -54.31
4 38.017 29.8705 -51.5945
4 40.7325 27.155 -51.5945
4 40.7325 29.8705 -54.31
4 39.3747 28.5128 -52.9522
4 39.3747 31.2282 -50.2368
4 42.0902 28.5128 -50.2368
4 42.0902 31.2282 -52.9522
4 43.448 27.155 -54.31
4 43.448 29.8705 -51.5945
4 46.1635 27.155 -51.5945
4 46.1635 29.8705 -54.31
4 44.8058 28.5128 -52.9522
4 44.8058 31.2282 -50.2368
4 47.5213 28.5128 -50.2368
4 47.5213 31.2282 -52.9522
4 48.879 27.155 -54.31
4 48.879 29.8705 -51.5945
4 51.5945 27.155 -51.5945
4 51.5945 29.8705 -54.31
4 50.2368 28.5128 -52.9522
4 50.2368 31.2282 -50.2368
4 52.9522 28.5128 -50.2368
4 52.9522 31.2282 -52.9522
4 0 32.586 -54.31
4 0 35.3015 -51.5945
4 2.7155 32.586 -51.5945
4 2.7155 35.3015 -54.31
4 1.35775 33.9438 -52.9522
4 1.35775 36.6593 -50.2368
4 4.07325 33.9438 -50.2368
4 4.07325 36.6593 -52.9522
4 5.431 32.586 -54.31
4 5.431 35.3015 -51.5945
4 8.1465 32.586 -51.5945
4 8.1465 35.3015 -54.31
4 6.78875 33.9438 -52.9522
4 6.78875 36.6593 -50.2368
4 9.50425 33.9438 -50.2368
4 9.50425 36.6593 -52.9522
4 10.862 32.586 -54.31
4 10.862 35.3015 -51.5945
4 13.5775 32.586 -51.5945
4 13.5775 35.3015 -54.31
4 12.2197 33.9438 -52.9522
4 12.2197 36.6593 -50.2368
4 14.9352 33.9438 -50.2368
4 14.9352 36.6593 -52.9522
4 16.293 32.586 -54.31
4 16.293 35.3015 -51.5945
4 19.0085 32.586 -51.5945
4 19.0085 35.3015 -54.31
4 17.6507 33.9438 -52.9522
4 17.6507 36.6593 -50.2368
4 20.3663 33.9438 -50.2368
4 20.3663 36.6593 -52.9522
4 21.724 32.586 -54.31
4 21.724 35.3015 -51.5945
4 24.4395 32.586 -51.5945
4 24.4395 35.3015 -54.31
4 23.0817 33.9438 -52.9522
4 23.0817 36.6593 -50.2368
4 25.7973 33.9438 -50.2368
4 25.7973 36.6593 -52.9522
4 27.155 32.586 -54.31
4 27.155 35.3015 -51.5945
4 29.8705 32.586 -51.5945
4 29.8705 35.3015 -54.31
4 28.5128 33.9438 -52.9522
4 28.5128 36.6593 -50.2368
4 31.2282 33.9438 -50.2368
4 31.2282 36.6593 -52.9522
4 32.586 32.586 -54.31
4 32.586 35.3015 -51.5945
4 35.3015 32.586 -51.5945
4 35.3015 35.3015 -54.31
4 33.9438 33.9438 -52.9522
4 33.9438 36.6593 -50.2368
4 36.6593 33.9438 -50.2368
4 36.6593 36.6593 -52.9522
4 38.017 32.586 -54.31
4 38.017 35.3015 -51.5945
4 40.7325 32.586 -51.5945
4 40.7325 35.3015 -54.31
4 39.3747 33.9438 -52.9522
4 39.3747 36.6593 -50.2368
4 42.0902 33.9438 -50.2368
4 42.0902 36.6593 -52.9522
4 43.448 32.586 -54.31
4 43.448 35.3015 -51.5945
4 46.1635 32.586 -51.5945
4 46.1635 35.3015 -54.31
4 44.8058 33.9438 -52.9522
4 44.8058 36.6593 -50.2368
4 47.5213 33.9438 -50.2368
4 47.5213 36.6593 -52.9522
4 48.879 32.586 -54.31
4 48.879 35.3015 -51.5945
4 51.5945 32.586 -51.5945
4 51.5945 35.3015 -54.31
4 50.2368 33.9438 -52.9522
4 50.2368 36.6593 -50.2368
4 52.9522 33.9438 -50.2368
4 52.9522 36.6593 -52.9522
4 0 38.017 -54.31
4 0 40.7325 -51.5945
4 2.7155 38.017 -51.5945
4 2.7155 40.7325 -54.31
4 1.35775 39.3747 -52.9522
4 1.35775 42.0902 -50.2368
4 4.07325 39.3747 -50.2368
4 4.07325 42.0902 -52.9522
4 5.431 38.017 -54.31
4 5.431 40.7325 -51.5945
4 8.1465 38.017 -51.5945
4 8.1465 40.7325 -54.31
4 6.78875 39.3747 -52.9522
4 6.78875 42.0902 -50.2368
4 9.50425 39.3747 -50.2368
4 9.50425 42.0902 -52.9522
4 10.862 38.017 -54.31
4 10.862 40.7325 -51.5945
4 13.5775 38.017 -51.5945
4 13.5775 40.7325 -54.31
4 12.2197 39.3747 -52.9522
4 12.2197 42.0902 -50.2368
4 14.9352 39.3747 -50.2368
4 14.9352 42.0902 -52.9522
4 16.293 38.017 -54.31
4 16.293 40.7325 -51.5945
4 19.0085 38.017 -51.5945
4 19.0085 40.7325 -54.31
4 17.6507 39.3747 -52.9522
4 17.6507 42.0902 -50.2368
4 20.3663 39.3747 -50.2368
4 20.3663 42.0902 -52.9522
4 21.724 38.017 -54.31
4 21.724 40.7325 -51.5945
4 24.4395 38.017 -51.5945
4 24.4395 40.7325 -54.31
4 23.0817 39.3747 -52.9522
4 23.0817 42.0902 -50.2368
4 25.7973 39.3747 -50.2368
4 25.7973 42.0902 -52.9522
4 27.155 38.017 -54.31
4 27.155 40.7325 -51.5945
4 29.8705 38.017 -51.5945
4 29.8705 40.7325 -54.31
4 28.5128 39.3747 -52.9522
4 28.5128 42.0902 -50.2368
4 31.2282 39.3747 -50.2368
4 31.2282 42.0902 -52.9522
4 32.586 38.017 -54.31
4 32.586 40.7325 -51.5945
4 35.3015 38.017 -51.5945
4 35.3015 40.7325 -54.31
4 33.9438 39.3747 -52.9522
4 33.9438 42.0902 -50.2368
4 36.6593 39.3747 -50.2368
4 36.6593 42.0902 -52.9522
4 38.017 38.017 -54.31
4 38.017 40.7325 -51.5945
4 40.7325 38.017 -51.5945
4 40.7325 40.7325 -54.31
4 39.3747 39.3747 -52.9522
4 39.3747 42.0902 -50.2368
4 42.0902 39.3747 -50.2368
4 42.0902 42.0902 -52.9522
4 43.448 38.017 -54.31
4 43.448 40.7325 -51.5945
4 46.1635 38.017 -51.5945
4 46.1635 40.7325 -54.31
4 44.8058 39.3747 -52.9522
4 44.8058 42.0902 -50.2368
4 47.5213 39.3747 -50.2368
4 47.5213 42.0902 -52.9522
4 48.879 38.017 -54.31
4 48.879 40.7325 -51.5945
4 51.5945 38.017 -51.5945
4 51.5945 40.7325 -54.31
4 50.2368 39.3747 -52.9522
4 50.2368 42.0902 -50.2368
4 52.9522 39.3747 -50.2368
4 52.9522 42.0902 -52.9522
4 0 43.448 -54.31
4 0 46.1635 -51.5945
4 2.7155 43.448 -51.5945
4 2.7155 46.1635 -54.31
4 1.35775 44.8058 -52.9522
4 1.35775 47.5213 -50.2368
4 4.07325 44.8058 -50.2368
4 4.07325 47.5213 -52.9522
4 5.431 43.448 -54.31
4 5.431 46.1635 -51.5945
4 8.1465 43.448 -51.5945
4 8.1465 46.1635 -54.31
4 6.78875 44.8058 -52.9522
4 6.78875 47.5213 -50.2368
4 9.50425 44.8058 -50.2368
4 9.50425 47.5213 -52.9522
4 10.862 43.448 -54.31
4 10.862 46.1635 -51.5945
4 13.5775 43.448 -51.5945
4 13.5775 46.1635 -54.31
4 12.2197 44.8058 -52.9522
4 12.2197 47.5213 -50.2368
4 14.9352 44.8058 -50.2368
4 14.9352 47.5213 -52.9522
4 16.293 43.448 -54.31
4 16.293 46.1635 -51.5945
4 19.0085 43.448 -51.5945
4 19.0085 46.1635 -54.31
4 17.6507 44.8058 -52.9522
4 17.6507 47.5213 -50.2368
4 20.3663 44.8058 -50.2368
4 20.3663 47.5213 -52.9522
4 21.724 43.448 -54.31
4 21.724 46.1635 -51.5945
4 24.4395 43.448 -51.5945
4 24.4395 46.1635 -54.31
4 23.0817 44.8058 -52.9522
4 23.0817 47.5213 -50.2368
4 25.7973 44.8058 -50.2368
4 25.7973 47.5213 -52.9522
4 27.155 43.448 -54.31
4 27.155 46.1635 -51.5945
4 29.8705 43.448 -51.5945
4 29.8705 46.1635 -54.31
4 28.5128 44.8058 -52.9522
4 28.5128 47.5213 -50.2368
4 31.2282 44.8058 -50.2368
4 31.2282 47.5213 -52.9522
4 32.586 43.448 -54.31
4 32.586 46.1635 -51.5945
4 35.3015 43.448 -51.5945
4 35.3015 46.1635 -54.31
4 33.9438 44.8058 -52.9522
4 33.9438 47.5213 -50.2368
4 36.6593 44.8058 -50.2368
4 36.6593 47.5213 -52.9522
4 38.017 43.448 -54.31
4 38.017 46.1635 -51.5945
4 40.7325 43.448 -51.5945
4 40.7325 46.1635 -54.31
4 39.3747 44.8058 -52.9522
4 39.3747 47.5213 -50.2368
4 42.0902 44.8058 -50.2368
4 42.0902 47.5213 -52.9522
4 43.448 43.448 -54.31
4 43.448 46.1635 -51.5945
4 46.1635 43.448 -51.5945
4 46.1635 46.1635 -54.31
4 44.8058 44.8058 -52.9522
4 44.8058 47.5213 -50.2368
4 47.5213 44.8058 -50.2368
4 47.5213 47.5213 -52.9522
4 48.879 43.448 -54.31
4 48.879 46.1635 -51.5945
4 51.5945 43.448 -51.5945
4 51.5945 46.1635 -54.31
4 50.2368 44.8058 -52.9522
4 50.2368 47.5213 -50.2368
4 52.9522 44.8058 -50.2368
4 52.9522 47.5213 -52.9522
4 0 48.879 -54.31
4 0 51.5945 -51.5945
4 2.7155 48.879 -51.5945
4 2.7155 51.5945 -54.31
4 1.35775 50.2368 -52.9522
4 1.35775 52.9522 -50.2368
4 4.07325 50.2368 -50.2368
4 4.07325 52.9522 -52.9522
4 5.431 48.879 -54.31
4 5.431 51.5945 -51.5945
4 8.1465 48.879 -51.5945
4 8.1465 51.5945 -54.31
4 6.78875 50.2368 -52.9522
4 6.78875 52.9522 -50.2368
4 9.50425 50.2368 -50.2368
4 9.50425 52.9522 -52.9522
4 10.862 48.879 -54.31
4 10.862 51.5945 -51.5945
4 13.5775 48.879 -51.5945
4 13.5775 51.5945 -54.31
4 12.2197 50.2368 -52.9522
4 12.2197 52.9522 -50.2368
4 14.9352 50.2368 -50.2368
4 14.9352 52.9522 -52.9522
4 16.293 48.879 -54.31
4 16.293 51.5945 -51.5945
4 19.0085 48.879 -51.5945
4 19.0085 51.5945 -54.31
4 17.6507 50.2368 -52.9522
4 17.6507 52.9522 -50.2368
4 20.3663 50.2368 -50.2368
4 20.3663 52.9522 -52.9522
4 21.724 48.879 -54.31
4 21.724 51.5945 -51.5945
4 24.4395 48.879 -51.5945
4 24.4395 51.5945 -54.31
4 23.0817 50.2368 -52.9522
4 23.0817 52.9522 -50.2368
4 25.7973 50.2368 -50.2368
4 25.7973 52.9522 -52.9522
4 27.155 48.879 -54.31
4 27.155 51.5945 -51.5945
4 29.8705 48.879 -51.5945
4 29.8705 51.5945 -54.31
4 28.5128 50.2368 -52.9522
4 28.5128 52.9522 -50.2368
4 31.2282 50.2368 -50.2368
4 31.2282 52.9522 -52.9522
4 32.586 48.879 -54.31
4 32.586 51.5945 -51.5945
4 35.3015 48.879 -51.5945
4 35.3015 51.5945 -54.31
4 33.9438 50.2368 -52.9522
4 33.9438 52.9522 -50.2368
4 36.6593 50.2368 -50.2368
4 36.6593 52.9522 -52.9522
4 38.017 48.879 -54.31
4 38.017 51.5945 -51.5945
4 40.7325 48.879 -51.5945
4 40.7325 51.5945 -54.31
4 39.3747 50.2368 -52.9522
4 39.3747 52.9522 -50.2368
4 42.0902 50.2368 -50.2368
4 42.0902 52.9522 -52.9522
4 43.448 48.879 -54.31
4 43.448 51.5945 -51.5945
4 46.1635 48.879 -51.5945
4 46.1635 51.5945 -54.31
4 44.8058 50.2368 -52.9522
4 44.8058 52.9522 -50.2368
4 47.5213 50.2368 -50.2368
4 47.5213 52.9522 -52.9522
4 48.879 48.879 -54.31
4 48.879 51.5945 -51.5945
4 51.5945 48.879 -51.5945
4 51.5945 51.5945 -54.31
4 50.2368 50.2368 -52.9522
4 50.2368 52.9522 -50.2368
4 52.9522 50.2368 -50.2368
4 52.9522 52.9522 -52.9522
4 0 0 -48.879
3 2.44542 2.51648 -31.9011
4 2.7155 2.7155 -48.879
4 1.35775 1.35775 -47.5213
3 0.85529 5.89525 -31.5362
3 3.72977 3.95802 -30.6849
4 4.07325 4.07325 -47.5213
4 5.431 0 -48.879
3 5.34555 5.3014 -31.8332
3 8.04721 2.53957 -31.9475
4 8.1465 2.7155 -48.879
4 6.78875 1.35775 -47.5213
3 6.61964 6.76422 -30.5386
3 9.38031 3.91906 -30.6625
4 9.50425 4.07325 -47.5213
4 10.862 0 -48.879
3 10.8921 5.36859 -31.8565
3 13.5538 2.59447 -31.9311
4 13.5775 2.7155 -48.879
4 12.2197 1.35775 -47.5213
3 12.1735 6.84305 -30.6134
3 14.8598 4.05966 -30.6131
4 14.9352 4.07325 -47.5213
4 16.293 0 -48.879
3 16.2871 5.43362 -31.8684
1 18.9489 2.6775 -31.9083
4 19.0085 2.7155 -48.879
4 17.6507 1.35775 -47.5213
1 17.5706 6.85964 -30.5511
1 20.2514 4.05524 -30.5811
4 20.3663 4.07325 -47.5213
4 21.724 0 -48.879
1 21.6856 5.3941 -31.8776
1 24.4439 2.72679 -31.8713
4 24.4395 2.7155 -48.879
4 23.0817 1.35775 -47.5213
1 23.015 6.69342 -30.5658
1 25.7405 4.05071 -30.4846
4 25.7973 4.07325 -47.5213
4 27.155 0 -48.879
1 27.1386 5.43247 -31.8326
1 29.8292 2.73752 -31.9062
4 29.8705 2.7155 -48.879
4 28.5128 1.35775 -47.5213
1 28.535 6.85649 -30.5992
1 31.2409 4.10069 -30.5498
4 31.2282 4.07325 -47.5213
4 32.586 0 -48.879
1 32.5527 5.47508 -31.861
1 35.3411 2.76215 -31.7665
4 35.3015 2.7155 -48.879
4 33.9438 1.35775 -47.5213
1 33.9902 6.85145 -30.5968
1 36.8187 4.13948 -30.5257
4 36.6593 4.07325 -47.5213
4 38.017 0 -48.879
1 38.1851 5.54818 -31.8146
1 40.8796 2.80187 -31.8736
4 40.7325 2.7155 -48.879
4 39.3747 1.35775 -47.5213
1 39.4827 6.85637 -30.452
1 42.2815 4.02533 -30.5236
4 42.0902 4.07325 -47.5213
4 43.448 0 -48.879
1 43.6582 5.49743 -31.7534
1 46.307 2.86106 -31.8775
4 46.1635 2.7155 -48.879
4 44.8058 1.35775 -47.5213
1 44.9921 6.87976 -30.5019
1 47.7761 4.14707 -30.6575
4 47.5213 4.07325 -47.5213
4 48.879 0 -48.879
1 49.0559 5.55689 -31.9362
1 51.7658 2.83909 -31.9797
4 51.5945 2.7155 -48.879
4 50.2368 1.35775 -47.5213
1 50.4935 6.82201 -30.5725
1 53.2828 4.33051 -30.9877
4 52.9522 4.07325 -47.5213
4 0 5.431 -48.879
3 2.42261 7.72371 -31.9459
4 2.7155 8.1465 -48.879
4 1.35775 6.78875 -47.5213
3 0.844363 11.3815 -31.6276
3 3.72828 9.30147 -30.8257
4 4.07325 9.50425 -47.5213
4 5.431 5.431 -48.879
3 5.2747 10.748 -31.8988
3 8.02299 8.00207 -31.8485
4 8.1465 8.1465 -48.879
4 6.78875 6.78875 -47.5213
3 6.57695 12.1808 -30.6416
3 9.28908 9.4063 -30.6659
4 9.50425 9.50425 -47.5213
4 10.862 5.431 -48.879
3 10.7762 10.7628 -31.9373
3 13.559 8.11847 -31.9469
4 13.5775 8.1465 -48.879
4 12.2197 6.78875 -47.5213
3 12.1192 12.2249 -30.4802
3 14.8383 9.49871 -30.5859
4 14.9352 9.50425 -47.5213
4 16.293 5.431 -48.879
3 16.2865 10.815 -31.8083
1 19.0437 8.19354 -31.9178
4 19.0085 8.1465 -48.879
4 17.6507 6.78875 -47.5213
1 17.649 12.1529 -30.5292
1 20.2853 9.56594 -30.581
4 20.3663 9.50425 -47.5213
4 21.724 5.431 -48.879
1 21.6405 10.8201 -31.8505
1 24.4173 8.03301 -31.9119
4 24.4395 8.1465 -48.879
4 23.0817 6.78875 -47.5213
1 23.0042 12.1994 -30.6104
1 25.7765 9.50716 -30.6051
4 25.7973 9.50425 -47.5213
4 27.155 5.431 -48.879
1 27.2034 10.916 -31.8526
1 29.926 8.21071 -31.8567
4 29.8705 8.1465 -48.879
4 28.5128 6.78875 -47.5213
1 28.4501 12.2675 -30.5209
1 31.2715 9.51224 -30.6223
4 31.2282 9.50425 -47.5213
4 32.586 5.431 -48.879
1 32.7207 10.8566 -31.9023
1 35.4083 8.25041 -31.8738
4 35.3015 8.1465 -48.879
4 33.9438 6.78875 -47.5213
1 33.9218 12.2964 -30.6345
1 36.7213 9.54295 -30.5122
4 36.6593 9.50425 -47.5213
4 38.017 5.431 -48.879
1 37.9918 10.8311 -31.8686
1 40.7733 8.20891 -31.7381
4 40.7325 8.1465 -48.879
4 39.3747 6.78875 -47.5213
1 39.4129 12.267 -30.6031
1 42.3012 9.51757 -30.4908
4 42.0902 9.50425 -47.5213
4 43.448 5.431 -48.879
1 43.4827 10.9846 -31.8384
1 46.2701 8.19166 -31.9356
4 46.1635 8.1465 -48.879
4 44.8058 6.78875 -47.5213
1 44.9607 12.2566 -30.5639
1 47.6707 9.44969 -30.5513
4 47.5213 9.50425 -47.5213
4 48.879 5.431 -48.879
1 48.9769 10.9352 -31.8502
1 51.7767 8.28276 -31.8339
4 51.5945 8.1465 -48.879
4 50.2368 6.78875 -47.5213
1 50.5668 12.2495 -30.6407
1 53.427 9.70203 -30.9953
4 52.9522 9.50425 -47.5213
4 0 10.862 -48.879
3 2.37792 13.2755 -32.0065
4 2.7155 13.5775 -48.879
4 1.35775 12.2197 -47.5213
3 0.809938 17.9859 -30.6088
3 3.59928 14.8568 -30.7995
4 4.07325 14.9352 -47.5213
4 5.431 10.862 -48.879
3 5.21786 16.1021 -31.915
3 8.03164 13.4963 -31.8941
4 8.1465 13.5775 -48.879
4 6.78875 12.2197 -47.5213
3 6.46347 17.6008 -30.7209
3 9.24373 14.9691 -30.6009
4 9.50425 14.9352 -47.5213
4 10.862 10.862 -48.879
3 10.793 16.1556 -31.9254
3 13.5412 13.5524 -31.8006
4 13.5775 13.5775 -48.879
4 12.2197 12.2197 -47.5213
3 12.0708 17.621 -30.5886
3 14.8496 14.9301 -30.5933
4 14.9352 14.9352 -47.5213
4 16.293 10.862 -48.879
3 16.222 16.2372 -31.8573
1 18.9629 13.5379 -31.8325
4 19.0085 13.5775 -48.879
4 17.6507 12.2197 -47.5213
1 17.5692 17.5928 -30.6003
1 20.3596 15.0337 -30.6099
4 20.3663 14.9352 -47.5213
4 21.724 10.862 -48.879
1 21.7679 16.3724 -31.865
1 24.4573 13.5824 -31.8565
4 24.4395 13.5775 -48.879
4 23.0817 12.2197 -47.5213
1 22.9412 17.8124 -30.5865
1 25.7942 15.0254 -30.6018
4 25.7973 14.9352 -47.5213
4 27.155 10.862 -48.879
1 27.151 16.3894 -31.8692
1 29.8765 13.5491 -31.8891
4 29.8705 13.5775 -48.879
4 28.5128 12.2197 -47.5213
1 28.4892 17.781 -30.5598
1 31.248 15.0157 -30.5605
4 31.2282 14.9352 -47.5213
4 32.586 10.862 -48.879
1 32.6739 16.3926 -31.8628
1 35.3858 13.5908 -31.8472
4 35.3015 13.5775 -48.879
4 33.9438 12.2197 -47.5213
1 34.0353 17.7849 -30.5132
1 36.7728 14.951 -30.5729
4 36.6593 14.9352 -47.5213
4 38.017 10.862 -48.879
1 38.0343 16.3211 -31.9118
1 40.7584 13.673 -31.8636
4 40.7325 13.5775 -48.879
4 39.3747 12.2197 -47.5213
1 39.4598 17.6745 -30.5837
1 42.1545 14.9605 -30.5147
4 42.0902 14.9352 -47.5213
4 43.448 10.862 -48.879
1 43.5709 16.2924 -31.7731
1 46.2488 13.6235 -31.8983
4 46.1635 13.5775 -48.879
4 44.8058 12.2197 -47.5213
1 44.9576 17.5985 -30.5368
1 47.6753 15.0255 -30.5757
4 47.5213 14.9352 -47.5213
4 48.879 10.862 -48.879
1 48.9996 16.4882 -31.883
1 51.8165 13.7037 -31.9082
4 51.5945 13.5775 -48.879
4 50.2368 12.2197 -47.5213
1 50.5097 17.626 -30.5935
1 53.407 15.1638 -30.9493
4 52.9522 14.9352 -47.5213
4 0 16.293 -48.879
3 2.51992 18.8823 -31.9653
4 2.7155 19.0085 -48.879
4 1.35775 17.6507 -47.5213
3 0.913374 22.1726 -31.5835
3 3.718 20.2648 -30.6236
4 4.07325 20.3663 -47.5213
4 5.431 16.293 -48.879
3 5.27855 21.5832 -31.8384
3 8.04585 18.8933 -31.9638
4 8.1465 19.0085 -48.879
4 6.78875 17.6507 -47.5213
3 6.53628 23.09 -30.7086
3 9.29998 20.3508 -30.6513
4 9.50425 20.3663 -47.5213
4 10.862 16.293 -48.879
3 10.8382 21.6977 -31.8784
3 13.5126 19.0128 -31.8446
4 13.5775 19.0085 -48.879
4 12.2197 17.6507 -47.5213
3 12.2133 23.1603 -30.5481
3 14.8638 20.4108 -30.6001
4 14.9352 20.3663 -47.5213
4 16.293 16.293 -48.879
3 16.2703 21.7055 -31.8991
1 18.9764 18.9448 -31.8456
4 19.0085 19.0085 -48.879
4 17.6507 17.6507 -47.5213
1 17.4632 23.1067 -30.6485
1 20.2492 20.3367 -30.5658
4 20.3663 20.3663 -47.5213
4 21.724 16.293 -48.879
1 21.6066 21.7236 -31.9
1 24.5344 19.0572 -31.8472
4 24.4395 19.0085 -48.879
4 23.0817 17.6507 -47.5213
1 22.9935 23.0936 -30.6985
1 25.6894 20.3862 -30.4325
4 25.7973 20.3663 -47.5213
4 27.155 16.293 -48.879
1 27.0945 21.6554 -31.745
1 29.8999 19.0268 -31.8247
4 29.8705 19.0085 -48.879
4 28.5128 17.6507 -47.5213
1 28.4514 23.0909 -30.4634
1 31.2049 20.4426 -30.594
4 31.2282 20.3663 -47.5213
4 32.586 16.293 -48.879
1 32.6722 21.7768 -31.8442
1 35.293 19.0004 -31.9112
4 35.3015 19.0085 -48.879
4 33.9438 17.6507 -47.5213
1 33.983 23.0591 -30.505
1 36.6718 20.4025 -30.6648
4 36.6593 20.3663 -47.5213
4 38.017 16.293 -48.879
1 38.0897 21.8406 -31.87
1 40.733 18.9937 -31.8611
4 40.7325 19.0085 -48.879
4 39.3747 17.6507 -47.5213
1 39.422 23.1171 -30.5617
1 42.1597 20.3062 -30.58
4 42.0902 20.3663 -47.5213
4 43.448 16.293 -48.879
1 43.4704 21.6841 -31.9315
1 46.2486 19.0433 -31.9148
4 46.1635 19.0085 -48.879
4 44.8058 17.6507 -47.5213
1 44.9278 23.0207 -30.5643
1 47.7458 20.3275 -30.72
4 47.5213 20.3663 -47.5213
4 48.879 16.293 -48.879
1 49.0199 21.8247 -31.8282
1 51.8061 19.1328 -31.8334
4 51.5945 19.0085 -48.879
4 50.2368 17.6507 -47.5213
1 50.4813 23.07 -30.5968
1 53.4148 20.7211 -31.0766
4 52.9522 20.3663 -47.5213
4 0 21.724 -48.879
3 2.36259 24.0811 -31.8941
4 2.7155 24.4395 -48.879
4 1.35775 23.0817 -47.5213
3 0.727878 28.7835 -30.6153
3 3.5744 25.7097 -30.8053
4 4.07325 25.7973 -47.5213
4 5.431 21.724 -48.879
3 5.2246 26.9861 -31.9061
3 7.99638 24.2681 -32.0015
4 8.1465 24.4395 -48.879
4 6.78875 23.0817 -47.5213
3 6.47872 28.3612 -30.6092
3 9.28649 25.7132 -30.6462
4 9.50425 25.7973 -47.5213
4 10.862 21.724 -48.879
3 10.7829 27.0916 -31.8131
3 13.5667 24.489 -31.8552
4 13.5775 24.4395 -48.879
4 12.2197 23.0817 -47.5213
3 11.9895 28.5492 -30.5238
3 14.9563 25.9008 -30.4694
4 14.9352 25.7973 -47.5213
4 16.293 21.724 -48.879
3 16.3124 27.2355 -31.8002
1 19.0168 24.4684 -31.8361
4 19.0085 24.4395 -48.879
4 17.6507 23.0817 -47.5213
1 17.7013 28.5705 -30.5496
1 20.3339 25.8154 -30.4877
4 20.3663 25.7973 -47.5213
4 21.724 21.724 -48.879
1 21.7323 27.0615 -31.8597
1 24.4182 24.4187 -31.8653
4 24.4395 24.4395 -48.879
4 23.0817 23.0817 -47.5213
1 23.0623 28.513 -30.4564
1 25.7301 25.8118 -30.6184
4 25.7973 25.7973 -47.5213
4 27.155 21.724 -48.879
1 27.2046 27.2285 -31.8633
1 29.8002 24.4415 -31.7961
4 29.8705 24.4395 -48.879
4 28.5128 23.0817 -47.5213
1 28.467 28.5729 -30.4596
1 31.1912 25.824 -30.5318
4 31.2282 25.7973 -47.5213
4 32.586 21.724 -48.879