13122
 Atoms. Timestep: 155000
4 0 0 -54.31
4 0 2.7155 -51.5945
4 2.7155 0 -51.5945
4 2.7155 2.7155 -54.31
4 1.35775 1.35775 -52.9522
4 1.35775 4.07325 -50.2368
4 4.07325 1.35775 -50.2368
4 4.07325 4.07325 -52.9522
4 5.431 0 -54.31
4 5.431 2.7155 -51.5945
4 8.1465 0 -51.5945
4 8.1465 2.7155 -54.31
4 6.78875 1.35775 -52.9522
4 6.78875 4.07325 -50.2368
4 9.50425 1.35775 -50.2368
4 9.50425 4.07325 -52.9522
4 10.862 0 -54.31
4 10.862 2.7155 -51.5945
4 13.5775 0 -51.5945
4 13.5775 2.7155 -54.31
4 12.2197 1.35775 -52.9522
4 12.2197 4.07325 -50.2368
4 14.9352 1.35775 -50.2368
4 14.9352 4.07325 -52.9522
4 16.293 0 -54.31
4 16.293 2.7155 -51.5945
4 19.0085 0 -51.5945
4 19.0085 2.7155 -54.31
4 17.6507 1.35775 -52.9522
4 17.6507 4.07325 -50.2368
4 20.3663 1.35775 -50.2368
4 20.3663 4.07325 -52.9522
4 21.724 0 -54.31
4 21.724 2.7155 -51.5945
4 24.4395 0 -51.5945
4 24.4395 2.7155 -54.31
4 23.0817 1.35775 -52.9522
4 23.0817 4.07325 -50.2368
4 25.7973 1.35775 -50.2368
4 25.7973 4.07325 -52.9522
4 27.155 0 -54.31
4 27.155 2.7155 -51.5945
4 29.8705 0 -51.5945
4 29.8705 2.7155 -54.31
4 28.5128 1.35775 -52.9522
4 28.5128 4.07325 -50.2368
4 31.2282 1.35775 -50.2368
4 31.2282 4.07325 -52.9522
4 32.586 0 -54.31
4 32.586 2.7155 -51.5945
4 35.3015 0 -51.5945
4 35.3015 2.7155 -54.31
4 33.9438 1.35775 -52.9522
4 33.9438 4.07325 -50.2368
4 36.6593 1.35775 -50.2368
4 36.6593 4.07325 -52.9522
4 38.017 0 -54.31
4 38.017 2.7155 -51.5945
4 40.7325 0 -51.5945
4 40.7325 2.7155 -54.31
4 39.3747 1.35775 -52.9522
4 39.3747 4.07325 -50.2368
4 42.0902 1.35775 -50.2368
4 42.0902 4.07325 -52.9522
4 43.448 0 -54.31
4 43.448 2.7155 -51.5945
4 46.1635 0 -51.5945
4 46.1635 2.7155 -54.31
4 44.8058 1.35775 -52.9522
4 44.8058 4.07325 -50.2368
4 47.5213 1.35775 -50.2368
4 47.5213 4.07325 -52.9522
4 48.879 0 -54.31
4 48.879 2.7155 -51.5945
4 51.5945 0 -51.5945
4 51.5945 2.7155 -54.31
4 50.2368 1.35775 -52.9522
4 50.2368 4.07325 -50.2368
4 52.9522 1.35775 -50.2368
4 52.9522 4.07325 -52.9522
4 0 5.431 -54.31
4 0 8.1465 -51.5945
4 2.7155 5.431 -51.5945
4 2.7155 8.1465 -54.31
4 1.35775 6.78875 -52.9522
4 1.35775 9.50425 -50.2368
4 4.07325 6.78875 -50.2368
4 4.07325 9.50425 -52.9522
4 5.431 5.431 -54.31
4 5.431 8.1465 -51.5945
4 8.1465 5.431 -51.5945
4 8.1465 8.1465 -54.31
4 6.78875 6.78875 -52.9522
4 6.78875 9.50425 -50.2368
4 9.50425 6.78875 -50.2368
4 9.50425 9.50425 -52.9522
4 10.862 5.431 -54.31
4 10.862 8.1465 -51.5945
4 13.5775 5.431 -51.5945
4 13.5775 8.1465 -54.31
4 12.2197 6.78875 -52.9522
4 12.2197 9.50425 -50.2368
4 14.9352 6.78875 -50.2368
4 14.9352 9.50425 -52.9522
4 16.293 5.431 -54.31
4 16.293 8.1465 -51.5945
4 19.0085 5.431 -51.5945
4 19.0085 8.1465 -54.31
4 17.6507 6.78875 -52.9522
4 17.6507 9.50425 -50.2368
4 20.3663 6.78875 -50.2368
4 20.3663 9.50425 -52.9522
4 21.724 5.431 -54.31
4 21.724 8.1465 -51.5945
4 24.4395 5.431 -51.5945
4 24.4395 8.1465 -54.31
4 23.0817 6.78875 -52.9522
4 23.0817 9.50425 -50.2368
4 25.7973 6.78875 -50.2368
4 25.7973 9.50425 -52.9522
4 27.155 5.431 -54.31
4 27.155 8.1465 -51.5945
4 29.8705 5.431 -51.5945
4 29.8705 8.1465 -54.31
4 28.5128 6.78875 -52.9522
4 28.5128 9.50425 -50.2368
4 31.2282 6.78875 -50.2368
4 31.2282 9.50425 -52.9522
4 32.586 5.431 -54.31
4 32.586 8.1465 -51.5945
4 35.3015 5.431 -51.5945
4 35.3015 8.1465 -54.31
4 33.9438 6.78875 -52.9522
4 33.9438 9.50425 -50.2368
4 36.6593 6.78875 -50.2368
4 36.6593 9.50425 -52.9522
4 38.017 5.431 -54.31
4 38.017 8.1465 -51.5945
4 40.7325 5.431 -51.5945
4 40.7325 8.1465 -54.31
4 39.3747 6.78875 -52.9522
4 39.3747 9.50425 -50.2368
4 42.0902 6.78875 -50.2368
4 42.0902 9.50425 -52.9522
4 43.448 5.431 -54.31
4 43.448 8.1465 -51.5945
4 46.1635 5.431 -51.5945
4 46.1635 8.1465 -54.31
4 44.8058 6.78875 -52.9522
4 44.8058 9.50425 -50.2368
4 47.5213 6.78875 -50.2368
4 47.5213 9.50425 -52.9522
4 48.879 5.431 -54.31
4 48.879 8.1465 -51.5945
4 51.5945 5.431 -51.5945
4 51.5945 8.1465 -54.31
4 50.2368 6.78875 -52.9522
4 50.2368 9.50425 -50.2368
4 52.9522 6.78875 -50.2368
4 52.9522 9.50425 -52.9522
4 0 10.862 -54.31
4 0 13.5775 -51.5945
4 2.7155 10.862 -51.5945
4 2.7155 13.5775 -54.31
4 1.35775 12.2197 -52.9522
4 1.35775 14.9352 -50.2368
4 4.07325 12.2197 -50.2368
4 4.07325 14.9352 -52.9522
4 5.431 10.862 -54.31
4 5.431 13.5775 -51.5945
4 8.1465 10.862 -51.5945
4 8.1465 13.5775 -54.31
4 6.78875 12.2197 -52.9522
4 6.78875 14.9352 -50.2368
4 9.50425 12.2197 -50.2368
4 9.50425 14.9352 -52.9522
4 10.862 10.862 -54.31
4 10.862 13.5775 -51.5945
4 13.5775 10.862 -51.5945
4 13.5775 13.5775 -54.31
4 12.2197 12.2197 -52.9522
4 12.2197 14.9352 -50.2368
4 14.9352 12.2197 -50.2368
4 14.9352 14.9352 -52.9522
4 16.293 10.862 -54.31
4 16.293 13.5775 -51.5945
4 19.0085 10.862 -51.5945
4 19.0085 13.5775 -54.31
4 17.6507 12.2197 -52.9522
4 17.6507 14.9352 -50.2368
4 20.3663 12.2197 -50.2368
4 20.3663 14.9352 -52.9522
4 21.724 10.862 -54.31
4 21.724 13.5775 -51.5945
4 24.4395 10.862 -51.5945
4 24.4395 13.5775 -54.31
4 23.0817 12.2197 -52.9522
4 23.0817 14.9352 -50.2368
4 25.7973 12.2197 -50.2368
4 25.7973 14.9352 -52.9522
4 27.155 10.862 -54.31
4 27.155 13.5775 -51.5945
4 29.8705 10.862 -51.5945
4 29.8705 13.5775 -54.31
4 28.5128 12.2197 -52.9522
4 28.5128 14.9352 -50.2368
4 31.2282 12.2197 -50.2368
4 31.2282 14.9352 -52.9522
4 32.586 10.862 -54.31
4 32.586 13.5775 -51.5945
4 35.3015 10.862 -51.5945
4 35.3015 13.5775 -54.31
4 33.9438 12.2197 -52.9522
4 33.9438 14.9352 -50.2368
4 36.6593 12.2197 -50.2368
4 36.6593 14.9352 -52.9522
4 38.017 10.862 -54.31
4 38.017 13.5775 -51.5945
4 40.7325 10.862 -51.5945
4 40.7325 13.5775 -54.31
4 39.3747 12.2197 -52.9522
4 39.3747 14.9352 -50.2368
4 42.0902 12.2197 -50.2368
4 42.0902 14.9352 -52.9522
4 43.448 10.862 -54.31
4 43.448 13.5775 -51.5945
4 46.1635 10.862 -51.5945
4 46.1635 13.5775 -54.31
4 44.8058 12.2197 -52.9522
4 44.8058 14.9352 -50.2368
4 47.5213 12.2197 -50.2368
4 47.5213 14.9352 -52.9522
4 48.879 10.862 -54.31
4 48.879 13.5775 -51.5945
4 51.5945 10.862 -51.5945
4 51.5945 13.5775 -54.31
4 50.2368 12.2197 -52.9522
4 50.2368 14.9352 -50.2368
4 52.9522 12.2197 -50.2368
4 52.9522 14.9352 -52.9522
4 0 16.293 -54.31
4 0 19.0085 -51.5945
4 2.7155 16.293 -51.5945
4 2.7155 19.0085 -54.31
4 1.35775 17.6507 -52.9522
4 1.35775 20.3663 -50.2368
4 4.07325 17.6507 -50.2368
4 4.07325 20.3663 -52.9522
4 5.431 16.293 -54.31
4 5.431 19.0085 -51.5945
4 8.1465 16.293 -51.5945
4 8.1465 19.0085 -54.31
4 6.78875 17.6507 -52.9522
4 6.78875 20.3663 -50.2368
4 9.50425 17.6507 -50.2368
4 9.50425 20.3663 -52.9522
4 10.862 16.293 -54.31
4 10.862 19.0085 -51.5945
4 13.5775 16.293 -51.5945
4 13.5775 19.0085 -54.31
4 12.2197 17.6507 -52.9522
4 12.2197 20.3663 -50.2368
4 14.9352 17.6507 -50.2368
4 14.9352 20.3663 -52.9522
4 16.293 16.293 -54.31
4 16.293 19.0085 -51.5945
4 19.0085 16.293 -51.5945
4 19.0085 19.0085 -54.31
4 17.6507 17.6507 -52.9522
4 17.6507 20.3663 -50.2368
4 20.3663 17.6507 -50.2368
4 20.3663 20.3663 -52.9522
4 21.724 16.293 -54.31
4 21.724 19.0085 -51.5945
4 24.4395 16.293 -51.5945
4 24.4395 19.0085 -54.31
4 23.0817 17.6507 -52.9522
4 23.0817 20.3663 -50.2368
4 25.7973 17.6507 -50.2368
4 25.7973 20.3663 -52.9522
4 27.155 16.293 -54.31
4 27.155 19.0085 -51.5945
4 29.8705 16.293 -51.5945
4 29.8705 19.0085 -54.31
4 28.5128 17.6507 -52.9522
4 28.5128 20.3663 -50.2368
4 31.2282 17.6507 -50.2368
4 31.2282 20.3663 -52.9522
4 32.586 16.293 -54.31
4 32.586 19.0085 -51.5945
4 35.3015 16.293 -51.5945
4 35.3015 19.0085 -54.31
4 33.9438 17.6507 -52.9522
4 33.9438 20.3663 -50.2368
4 36.6593 17.6507 -50.2368
4 36.6593 20.3663 -52.9522
4 38.017 16.293 -54.31
4 38.017 19.0085 -51.5945
4 40.7325 16.293 -51.5945
4 40.7325 19.0085 -54.31
4 39.3747 17.6507 -52.9522
4 39.3747 20.3663 -50.2368
4 42.0902 17.6507 -50.2368
4 42.0902 20.3663 -52.9522
4 43.448 16.293 -54.31
4 43.448 19.0085 -51.5945
4 46.1635 16.293 -51.5945
4 46.1635 19.0085 -54.31
4 44.8058 17.6507 -52.9522
4 44.8058 20.3663 -50.2368
4 47.5213 17.6507 -50.2368
4 47.5213 20.3663 -52.9522
4 48.879 16.293 -54.31
4 48.879 19.0085 -51.5945
4 51.5945 16.293 -51.5945
4 51.5945 19.0085 -54.31
4 50.2368 17.6507 -52.9522
4 50.2368 20.3663 -50.2368
4 52.9522 17.6507 -50.2368
4 52.9522 20.3663 -52.9522
4 0 21.724 -54.31
4 0 24.4395 -51.5945
4 2.7155 21.724 -51.5945
4 2.7155 24.4395 -54.31
4 1.35775 23.0817 -52.9522
4 1.35775 25.7973 -50.2368
4 4.07325 23.0817 -50.2368
4 4.07325 25.7973 -52.9522
4 5.431 21.724 -54.31
4 5.431 24.4395 -51.5945
4 8.1465 21.724 -51.5945
4 8.1465 24.4395 -54.31
4 6.78875 23.0817 -52.9522
4 6.78875 25.7973 -50.2368
4 9.50425 23.0817 -50.2368
4 9.50425 25.7973 -52.9522
4 10.862 21.724 -54.31
4 10.862 24.4395 -51.5945
4 13.5775 21.724 -51.5945
4 13.5775 24.4395 -54.31
4 12.2197 23.0817 -52.9522
4 12.2197 25.7973 -50.2368
4 14.9352 23.0817 -50.2368
4 14.9352 25.7973 -52.9522
4 16.293 21.724 -54.31
4 16.293 24.4395 -51.5945
4 19.0085 21.724 -51.5945
4 19.0085 24.4395 -54.31
4 17.6507 23.0817 -52.9522
4 17.6507 25.7973 -50.2368
4 20.3663 23.0817 -50.2368
4 20.3663 25.7973 -52.9522
4 21.724 21.724 -54.31
4 21.724 24.4395 -51.5945
4 24.4395 21.724 -51.5945
4 24.4395 24.4395 -54.31
4 23.0817 23.0817 -52.9522
4 23.0817 25.7973 -50.2368
4 25.7973 23.0817 -50.2368
4 25.7973 25.7973 -52.9522
4 27.155 21.724 -54.31
4 27.155 24.4395 -51.5945
4 29.8705 21.724 -51.5945
4 29.8705 24.4395 -54.31
4 28.5128 23.0817 -52.9522
4 28.5128 25.7973 -50.2368
4 31.2282 23.0817 -50.2368
4 31.2282 25.7973 -52.9522
4 32.586 21.724 -54.31
4 32.586 24.4395 -51.5945
4 35.3015 21.724 -51.5945
4 35.3015 24.4395 -54.31
4 33.9438 23.0817 -52.9522
4 33.9438 25.7973 -50.2368
4 36.6593 23.0817 -50.2368
4 36.6593 25.7973 -52.9522
4 38.017 21.724 -54.31
4 38.017 24.4395 -51.5945
4 40.7325 21.724 -51.5945
4 40.7325 24.4395 -54.31
4 39.3747 23.0817 -52.9522
4 39.3747 25.7973 -50.2368
4 42.0902 23.0817 -50.2368
4 42.0902 25.7973 -52.9522
4 43.448 21.724 -54.31
4 43.448 24.4395 -51.5945
4 46.1635 21.724 -51.5945
4 46.1635 24.4395 -54.31
4 44.8058 23.0817 -52.9522
4 44.8058 25.7973 -50.2368
4 47.5213 23.0817 -50.2368
4 47.5213 25.7973 -52.9522
4 48.879 21.724 -54.31
4 48.879 24.4395 -51.5945
4 51.5945 21.724 -51.5945
4 51.5945 24.4395 -54.31
4 50.2368 23.0817 -52.9522
4 50.2368 25.7973 -50.2368
4 52.9522 23.0817 -50.2368
4 52.9522 25.7973 -52.9522
4 0 27.155 -54.31
4 0 29.8705 -51.5945
4 2.7155 27.155 -51.5945
4 2.7155 29.8705 -54.31
4 1.35775 28.5128 -52.9522
4 1.35775 31.2282 -50.2368
4 4.07325 28.5128 -50.2368
4 4.07325 31.2282 -52.9522
4 5.431 27.155 -54.31
4 5.431 29.8705 -51.5945
4 8.1465 27.155 -51.5945
4 8.1465 29.8705 -54.31
4 6.78875 28.5128 -52.9522
4 6.78875 31.2282 -50.2368
4 9.50425 28.5128 -50.2368
4 9.50425 31.2282 -52.9522
4 10.862 27.155 -54.31
4 10.862 29.8705 -51.5945
4 13.5775 27.155 -51.5945
4 13.5775 29.8705 -54.31
4 12.2197 28.5128 -52.9522
4 12.2197 31.2282 -50.2368
4 14.9352 28.5128 -50.2368
4 14.9352 31.2282 -52.9522
4 16.293 27.155 -54.31
4 16.293 29.8705 -51.5945
4 19.0085 27.155 -51.5945
4 19.0085 29.8705 -54.31
4 17.6507 28.5128 -52.9522
4 17.6507 31.2282 -50.2368
4 20.3663 28.5128 -50.2368
4 20.3663 31.2282 -52.9522
4 21.724 27.155 -54.31
4 21.724 29.8705 -51.5945
4 24.4395 27.155 -51.5945
4 24.4395 29.8705 -54.31
4 23.0817 28.5128 -52.9522
4 23.0817 31.2282 -50.2368
4 25.7973 28.5128 -50.2368
4 25.7973 31.2282 -52.9522
4 27.155 27.155 -54.31
4 27.155 29.8705 -51.5945
4 29.8705 27.155 -51.5945
4 29.8705 29.8705 -54.31
4 28.5128 28.5128 -52.9522
4 28.5128 31.2282 -50.2368
4 31.2282 28.5128 -50.2368
4 31.2282 31.2282 -52.9522
4 32.586 27.155 -54.31
4 32.586 29.8705 -51.5945
4 35.3015 27.155 -51.5945
4 35.3015 29.8705 -54.31
4 33.9438 28.5128 -52.9522
4 33.9438 31.2282 -50.2368
4 36.6593 28.5128 -50.2368
4 36.6593 31.2282 -52.9522
4 38.017 27.155 -54.31
4 38.017 29.8705 -51.5945
4 40.7325 27.155 -51.5945
4 40.7325 29.8705 -54.31
4 39.3747 28.5128 -52.9522
4 39.3747 31.2282 -50.2368
4 42.0902 28.5128 -50.2368
4 42.0902 31.2282 -52.9522
4 43.448 27.155 -54.31
4 43.448 29.8705 -51.5945
4 46.1635 27.155 -51.5945
4 46.1635 29.8705 -54.31
4 44.8058 28.5128 -52.9522
4 44.8058 31.2282 -50.2368
4 47.5213 28.5128 -50.2368
4 47.5213 31.2282 -52.9522
4 48.879 27.155 -54.31
4 48.879 29.8705 -51.5945
4 51.5945 27.155 -51.5945
4 51.5945 29.8705 -54.31
4 50.2368 28.5128 -52.9522
4 50.2368 31.2282 -50.2368
4 52.9522 28.5128 -50.2368
4 52.9522 31.2282 -52.9522
4 0 32.586 -54.31
4 0 35.3015 -51.5945
4 2.7155 32.586 -51.5945
4 2.7155 35.3015 -54.31
4 1.35775 33.9438 -52.9522
4 1.35775 36.6593 -50.2368
4 4.07325 33.9438 -50.2368
4 4.07325 36.6593 -52.9522
4 5.431 32.586 -54.31
4 5.431 35.3015 -51.5945
4 8.1465 32.586 -51.5945
4 8.1465 35.3015 -54.31
4 6.78875 33.9438 -52.9522
4 6.78875 36.6593 -50.2368
4 9.50425 33.9438 -50.2368
4 9.50425 36.6593 -52.9522
4 10.862 32.586 -54.31
4 10.862 35.3015 -51.5945
4 13.5775 32.586 -51.5945
4 13.5775 35.3015 -54.31
4 12.2197 33.9438 -52.9522
4 12.2197 36.6593 -50.2368
4 14.9352 33.9438 -50.2368
4 14.9352 36.6593 -52.9522
4 16.293 32.586 -54.31
4 16.293 35.3015 -51.5945
4 19.0085 32.586 -51.5945
4 19.0085 35.3015 -54.31
4 17.6507 33.9438 -52.9522
4 17.6507 36.6593 -50.2368
4 20.3663 33.9438 -50.2368
4 20.3663 36.6593 -52.9522
4 21.724 32.586 -54.31
4 21.724 35.3015 -51.5945
4 24.4395 32.586 -51.5945
4 24.4395 35.3015 -54.31
4 23.0817 33.9438 -52.9522
4 23.0817 36.6593 -50.2368
4 25.7973 33.9438 -50.2368
4 25.7973 36.6593 -52.9522
4 27.155 32.586 -54.31
4 27.155 35.3015 -51.5945
4 29.8705 32.586 -51.5945
4 29.8705 35.3015 -54.31
4 28.5128 33.9438 -52.9522
4 28.5128 36.6593 -50.2368
4 31.2282 33.9438 -50.2368
4 31.2282 36.6593 -52.9522
4 32.586 32.586 -54.31
4 32.586 35.3015 -51.5945
4 35.3015 32.586 -51.5945
4 35.3015 35.3015 -54.31
4 33.9438 33.9438 -52.9522
4 33.9438 36.6593 -50.2368
4 36.6593 33.9438 -50.2368
4 36.6593 36.6593 -52.9522
4 38.017 32.586 -54.31
4 38.017 35.3015 -51.5945
4 40.7325 32.586 -51.5945
4 40.7325 35.3015 -54.31
4 39.3747 33.9438 -52.9522
4 39.3747 36.6593 -50.2368
4 42.0902 33.9438 -50.2368
4 42.0902 36.6593 -52.9522
4 43.448 32.586 -54.31
4 43.448 35.3015 -51.5945
4 46.1635 32.586 -51.5945
4 46.1635 35.3015 -54.31
4 44.8058 33.9438 -52.9522
4 44.8058 36.6593 -50.2368
4 47.5213 33.9438 -50.2368
4 47.5213 36.6593 -52.9522
4 48.879 32.586 -54.31
4 48.879 35.3015 -51.5945
4 51.5945 32.586 -51.5945
4 51.5945 35.3015 -54.31
4 50.2368 33.9438 -52.9522
4 50.2368 36.6593 -50.2368
4 52.9522 33.9438 -50.2368
4 52.9522 36.6593 -52.9522
4 0 38.017 -54.31
4 0 40.7325 -51.5945
4 2.7155 38.017 -51.5945
4 2.7155 40.7325 -54.31
4 1.35775 39.3747 -52.9522
4 1.35775 42.0902 -50.2368
4 4.07325 39.3747 -50.2368
4 4.07325 42.0902 -52.9522
4 5.431 38.017 -54.31
4 5.431 40.7325 -51.5945
4 8.1465 38.017 -51.5945
4 8.1465 40.7325 -54.31
4 6.78875 39.3747 -52.9522
4 6.78875 42.0902 -50.2368
4 9.50425 39.3747 -50.2368
4 9.50425 42.0902 -52.9522
4 10.862 38.017 -54.31
4 10.862 40.7325 -51.5945
4 13.5775 38.017 -51.5945
4 13.5775 40.7325 -54.31
4 12.2197 39.3747 -52.9522
4 12.2197 42.0902 -50.2368
4 14.9352 39.3747 -50.2368
4 14.9352 42.0902 -52.9522
4 16.293 38.017 -54.31
4 16.293 40.7325 -51.5945
4 19.0085 38.017 -51.5945
4 19.0085 40.7325 -54.31
4 17.6507 39.3747 -52.9522
4 17.6507 42.0902 -50.2368
4 20.3663 39.3747 -50.2368
4 20.3663 42.0902 -52.9522
4 21.724 38.017 -54.31
4 21.724 40.7325 -51.5945
4 24.4395 38.017 -51.5945
4 24.4395 40.7325 -54.31
4 23.0817 39.3747 -52.9522
4 23.0817 42.0902 -50.2368
4 25.7973 39.3747 -50.2368
4 25.7973 42.0902 -52.9522
4 27.155 38.017 -54.31
4 27.155 40.7325 -51.5945
4 29.8705 38.017 -51.5945
4 29.8705 40.7325 -54.31
4 28.5128 39.3747 -52.9522
4 28.5128 42.0902 -50.2368
4 31.2282 39.3747 -50.2368
4 31.2282 42.0902 -52.9522
4 32.586 38.017 -54.31
4 32.586 40.7325 -51.5945
4 35.3015 38.017 -51.5945
4 35.3015 40.7325 -54.31
4 33.9438 39.3747 -52.9522
4 33.9438 42.0902 -50.2368
4 36.6593 39.3747 -50.2368
4 36.6593 42.0902 -52.9522
4 38.017 38.017 -54.31
4 38.017 40.7325 -51.5945
4 40.7325 38.017 -51.5945
4 40.7325 40.7325 -54.31
4 39.3747 39.3747 -52.9522
4 39.3747 42.0902 -50.2368
4 42.0902 39.3747 -50.2368
4 42.0902 42.0902 -52.9522
4 43.448 38.017 -54.31
4 43.448 40.7325 -51.5945
4 46.1635 38.017 -51.5945
4 46.1635 40.7325 -54.31
4 44.8058 39.3747 -52.9522
4 44.8058 42.0902 -50.2368
4 47.5213 39.3747 -50.2368
4 47.5213 42.0902 -52.9522
4 48.879 38.017 -54.31
4 48.879 40.7325 -51.5945
4 51.5945 38.017 -51.5945
4 51.5945 40.7325 -54.31
4 50.2368 39.3747 -52.9522
4 50.2368 42.0902 -50.2368
4 52.9522 39.3747 -50.2368
4 52.9522 42.0902 -52.9522
4 0 43.448 -54.31
4 0 46.1635 -51.5945
4 2.7155 43.448 -51.5945
4 2.7155 46.1635 -54.31
4 1.35775 44.8058 -52.9522
4 1.35775 47.5213 -50.2368
4 4.07325 44.8058 -50.2368
4 4.07325 47.5213 -52.9522
4 5.431 43.448 -54.31
4 5.431 46.1635 -51.5945
4 8.1465 43.448 -51.5945
4 8.1465 46.1635 -54.31
4 6.78875 44.8058 -52.9522
4 6.78875 47.5213 -50.2368
4 9.50425 44.8058 -50.2368
4 9.50425 47.5213 -52.9522
4 10.862 43.448 -54.31
4 10.862 46.1635 -51.5945
4 13.5775 43.448 -51.5945
4 13.5775 46.1635 -54.31
4 12.2197 44.8058 -52.9522
4 12.2197 47.5213 -50.2368
4 14.9352 44.8058 -50.2368
4 14.9352 47.5213 -52.9522
4 16.293 43.448 -54.31
4 16.293 46.1635 -51.5945
4 19.0085 43.448 -51.5945
4 19.0085 46.1635 -54.31
4 17.6507 44.8058 -52.9522
4 17.6507 47.5213 -50.2368
4 20.3663 44.8058 -50.2368
4 20.3663 47.5213 -52.9522
4 21.724 43.448 -54.31
4 21.724 46.1635 -51.5945
4 24.4395 43.448 -51.5945
4 24.4395 46.1635 -54.31
4 23.0817 44.8058 -52.9522
4 23.0817 47.5213 -50.2368
4 25.7973 44.8058 -50.2368
4 25.7973 47.5213 -52.9522
4 27.155 43.448 -54.31
4 27.155 46.1635 -51.5945
4 29.8705 43.448 -51.5945
4 29.8705 46.1635 -54.31
4 28.5128 44.8058 -52.9522
4 28.5128 47.5213 -50.2368
4 31.2282 44.8058 -50.2368
4 31.2282 47.5213 -52.9522
4 32.586 43.448 -54.31
4 32.586 46.1635 -51.5945
4 35.3015 43.448 -51.5945
4 35.3015 46.1635 -54.31
4 33.9438 44.8058 -52.9522
4 33.9438 47.5213 -50.2368
4 36.6593 44.8058 -50.2368
4 36.6593 47.5213 -52.9522
4 38.017 43.448 -54.31
4 38.017 46.1635 -51.5945
4 40.7325 43.448 -51.5945
4 40.7325 46.1635 -54.31
4 39.3747 44.8058 -52.9522
4 39.3747 47.5213 -50.2368
4 42.0902 44.8058 -50.2368
4 42.0902 47.5213 -52.9522
4 43.448 43.448 -54.31
4 43.448 46.1635 -51.5945
4 46.1635 43.448 -51.5945
4 46.1635 46.1635 -54.31
4 44.8058 44.8058 -52.9522
4 44.8058 47.5213 -50.2368
4 47.5213 44.8058 -50.2368
4 47.5213 47.5213 -52.9522
4 48.879 43.448 -54.31
4 48.879 46.1635 -51.5945
4 51.5945 43.448 -51.5945
4 51.5945 46.1635 -54.31
4 50.2368 44.8058 -52.9522
4 50.2368 47.5213 -50.2368
4 52.9522 44.8058 -50.2368
4 52.9522 47.5213 -52.9522
4 0 48.879 -54.31
4 0 51.5945 -51.5945
4 2.7155 48.879 -51.5945
4 2.7155 51.5945 -54.31
4 1.35775 50.2368 -52.9522
4 1.35775 52.9522 -50.2368
4 4.07325 50.2368 -50.2368
4 4.07325 52.9522 -52.9522
4 5.431 48.879 -54.31
4 5.431 51.5945 -51.5945
4 8.1465 48.879 -51.5945
4 8.1465 51.5945 -54.31
4 6.78875 50.2368 -52.9522
4 6.78875 52.9522 -50.2368
4 9.50425 50.2368 -50.2368
4 9.50425 52.9522 -52.9522
4 10.862 48.879 -54.31
4 10.862 51.5945 -51.5945
4 13.5775 48.879 -51.5945
4 13.5775 51.5945 -54.31
4 12.2197 50.2368 -52.9522
4 12.2197 52.9522 -50.2368
4 14.9352 50.2368 -50.2368
4 14.9352 52.9522 -52.9522
4 16.293 48.879 -54.31
4 16.293 51.5945 -51.5945
4 19.0085 48.879 -51.5945
4 19.0085 51.5945 -54.31
4 17.6507 50.2368 -52.9522
4 17.6507 52.9522 -50.2368
4 20.3663 50.2368 -50.2368
4 20.3663 52.9522 -52.9522
4 21.724 48.879 -54.31
4 21.724 51.5945 -51.5945
4 24.4395 48.879 -51.5945
4 24.4395 51.5945 -54.31
4 23.0817 50.2368 -52.9522
4 23.0817 52.9522 -50.2368
4 25.7973 50.2368 -50.2368
4 25.7973 52.9522 -52.9522
4 27.155 48.879 -54.31
4 27.155 51.5945 -51.5945
4 29.8705 48.879 -51.5945
4 29.8705 51.5945 -54.31
4 28.5128 50.2368 -52.9522
4 28.5128 52.9522 -50.2368
4 31.2282 50.2368 -50.2368
4 31.2282 52.9522 -52.9522
4 32.586 48.879 -54.31
4 32.586 51.5945 -51.5945
4 35.3015 48.879 -51.5945
4 35.3015 51.5945 -54.31
4 33.9438 50.2368 -52.9522
4 33.9438 52.9522 -50.2368
4 36.6593 50.2368 -50.2368
4 36.6593 52.9522 -52.9522
4 38.017 48.879 -54.31
4 38.017 51.5945 -51.5945
4 40.7325 48.879 -51.5945
4 40.7325 51.5945 -54.31
4 39.3747 50.2368 -52.9522
4 39.3747 52.9522 -50.2368
4 42.0902 50.2368 -50.2368
4 42.0902 52.9522 -52.9522
4 43.448 48.879 -54.31
4 43.448 51.5945 -51.5945
4 46.1635 48.879 -51.5945
4 46.1635 51.5945 -54.31
4 44.8058 50.2368 -52.9522
4 44.8058 52.9522 -50.2368
4 47.5213 50.2368 -50.2368
4 47.5213 52.9522 -52.9522
4 48.879 48.879 -54.31
4 48.879 51.5945 -51.5945
4 51.5945 48.879 -51.5945
4 51.5945 51.5945 -54.31
4 50.2368 50.2368 -52.9522
4 50.2368 52.9522 -50.2368
4 52.9522 50.2368 -50.2368
4 52.9522 52.9522 -52.9522
4 0 0 -48.879
3 2.63408 2.68717 -15.5473
4 2.7155 2.7155 -48.879
4 1.35775 1.35775 -47.5213
3 1.4142 5.91159 -15.0267
3 4.06968 4.01154 -14.2433
4 4.07325 4.07325 -47.5213
4 5.431 0 -48.879
3 5.42162 5.33998 -15.5585
3 8.04494 2.62701 -15.5333
4 8.1465 2.7155 -48.879
4 6.78875 1.35775 -47.5213
3 6.64945 6.65455 -14.1282
3 9.50191 3.99379 -14.2388
4 9.50425 4.07325 -47.5213
4 10.862 0 -48.879
3 10.7865 5.36986 -15.6044
3 13.5736 2.64509 -15.5676
4 13.5775 2.7155 -48.879
4 12.2197 1.35775 -47.5213
3 12.1538 6.79268 -14.2025
3 14.9606 4.048 -14.3156
4 14.9352 4.07325 -47.5213
4 16.293 0 -48.879
3 16.3361 5.47708 -15.6187
1 19.0578 2.75055 -15.6497
4 19.0085 2.7155 -48.879
4 17.6507 1.35775 -47.5213
1 17.6453 6.79056 -14.2397
1 20.4355 4.03522 -14.2361
4 20.3663 4.07325 -47.5213
4 21.724 0 -48.879
1 21.7335 5.47173 -15.5631
1 24.445 2.68535 -15.5937
4 24.4395 2.7155 -48.879
4 23.0817 1.35775 -47.5213
1 23.0595 6.77477 -14.2351
1 25.7712 4.09125 -14.4205
4 25.7973 4.07325 -47.5213
4 27.155 0 -48.879
1 27.2119 5.49909 -15.6548
1 29.886 2.80369 -15.5973
4 29.8705 2.7155 -48.879
4 28.5128 1.35775 -47.5213
1 28.6444 6.81033 -14.3268
1 31.2428 4.13627 -14.2442
4 31.2282 4.07325 -47.5213
4 32.586 0 -48.879
1 32.597 5.41534 -15.5988
1 35.342 2.82487 -15.6193
4 35.3015 2.7155 -48.879
4 33.9438 1.35775 -47.5213
1 34.0181 6.78072 -14.374
1 36.7472 4.08508 -14.3463
4 36.6593 4.07325 -47.5213
4 38.017 0 -48.879
1 38.1538 5.54994 -15.6226
1 40.8356 2.82437 -15.6309
4 40.7325 2.7155 -48.879
4 39.3747 1.35775 -47.5213
1 39.5801 6.73962 -14.3233
1 42.342 4.08737 -14.3508
4 42.0902 4.07325 -47.5213
4 43.448 0 -48.879
1 43.5841 5.59403 -15.5896
1 46.2792 2.91949 -15.6438
4 46.1635 2.7155 -48.879
4 44.8058 1.35775 -47.5213
1 45.1679 6.7418 -14.4711
1 47.9889 4.05268 -14.549
4 47.5213 4.07325 -47.5213
4 48.879 0 -48.879
1 49.1425 5.6765 -15.6912
1 52.0351 3.08682 -15.7171
4 51.5945 2.7155 -48.879
4 50.2368 1.35775 -47.5213
1 50.9411 6.99711 -14.7398
1 53.5675 5.0868 -15.5008
4 52.9522 4.07325 -47.5213
4 0 5.431 -48.879
3 2.6305 7.89414 -15.4679
4 2.7155 8.1465 -48.879
4 1.35775 6.78875 -47.5213
3 1.2488 11.3772 -15.0215
3 3.98101 9.47195 -14.2307
4 4.07325 9.50425 -47.5213
4 5.431 5.431 -48.879
3 5.42568 10.7886 -15.5801
3 8.074 8.0383 -15.5068
4 8.1465 8.1465 -48.879
4 6.78875 6.78875 -47.5213
3 6.76875 12.1263 -14.2447
3 9.41706 9.4016 -14.1259
4 9.50425 9.50425 -47.5213
4 10.862 5.431 -48.879
3 10.727 10.7876 -15.5509
3 13.5699 8.16461 -15.501
4 13.5775 8.1465 -48.879
4 12.2197 6.78875 -47.5213
3 12.1673 12.2235 -14.2472
3 15.0348 9.47101 -14.2081
4 14.9352 9.50425 -47.5213
4 16.293 5.431 -48.879
3 16.3894 10.9193 -15.5376
1 19.0099 8.16192 -15.6162
4 19.0085 8.1465 -48.879
4 17.6507 6.78875 -47.5213
1 17.6669 12.3083 -14.2085
1 20.3123 9.5351 -14.187
4 20.3663 9.50425 -47.5213
4 21.724 5.431 -48.879
1 21.6673 10.843 -15.4909
1 24.438 8.07353 -15.5701
4 24.4395 8.1465 -48.879
4 23.0817 6.78875 -47.5213
1 23.257 12.2038 -14.2543
1 25.8865 9.52407 -14.1546
4 25.7973 9.50425 -47.5213
4 27.155 5.431 -48.879
1 27.1574 10.8595 -15.585
1 29.9581 8.17735 -15.6657
4 29.8705 8.1465 -48.879
4 28.5128 6.78875 -47.5213
1 28.7189 12.113 -14.3198
1 31.3473 9.50401 -14.2894
4 31.2282 9.50425 -47.5213
4 32.586 5.431 -48.879
1 32.6342 10.9264 -15.6781
1 35.2647 8.17791 -15.5999
4 35.3015 8.1465 -48.879
4 33.9438 6.78875 -47.5213
1 34.0304 12.2456 -14.3378
1 36.8648 9.46876 -14.3918
4 36.6593 9.50425 -47.5213
4 38.017 5.431 -48.879
1 38.0831 10.9485 -15.6422
1 40.8119 8.17431 -15.5976
4 40.7325 8.1465 -48.879
4 39.3747 6.78875 -47.5213
1 39.5911 12.1365 -14.4234
1 42.4033 9.45917 -14.4372
4 42.0902 9.50425 -47.5213
4 43.448 5.431 -48.879
1 43.5572 10.9783 -15.7289
1 46.4232 8.3167 -15.6214
4 46.1635 8.1465 -48.879
4 44.8058 6.78875 -47.5213
1 45.1296 12.1267 -14.52
1 48.0183 9.52692 -14.4752
4 47.5213 9.50425 -47.5213
4 48.879 5.431 -48.879
1 49.1354 11.0316 -15.7309
1 52.0899 8.67116 -15.8517
4 51.5945 8.1465 -48.879
4 50.2368 6.78875 -47.5213
1 50.7289 12.396 -14.6299
1 53.5256 10.5753 -15.3113
4 52.9522 9.50425 -47.5213
4 0 10.862 -48.879
3 2.58532 13.4949 -15.5091
4 2.7155 13.5775 -48.879
4 1.35775 12.2197 -47.5213
3 1.24815 18.0002 -13.6043
3 3.97364 14.8631 -14.0767
4 4.07325 14.9352 -47.5213
4 5.431 10.862 -48.879
3 5.28706 16.1932 -15.5349
3 8.12449 13.589 -15.5812
4 8.1465 13.5775 -48.879
4 6.78875 12.2197 -47.5213
3 6.69654 17.6033 -14.2589
3 9.43482 14.9301 -14.2541
4 9.50425 14.9352 -47.5213
4 10.862 10.862 -48.879
3 10.8141 16.2409 -15.6546
3 13.5753 13.6227 -15.5096
4 13.5775 13.5775 -48.879
4 12.2197 12.2197 -47.5213
3 12.1571 17.6351 -14.3016
3 14.9394 14.958 -14.2058
4 14.9352 14.9352 -47.5213
4 16.293 10.862 -48.879
3 16.248 16.2977 -15.5565
1 19.0303 13.623 -15.5112
4 19.0085 13.5775 -48.879
4 17.6507 12.2197 -47.5213
1 17.5877 17.6389 -14.2477
1 20.5033 14.9609 -14.2284
4 20.3663 14.9352 -47.5213
4 21.724 10.862 -48.879
1 21.8033 16.3667 -15.5618
1 24.5419 13.625 -15.5937
4 24.4395 13.5775 -48.879
4 23.0817 12.2197 -47.5213
1 23.2478 17.6674 -14.2856
1 25.9033 14.9413 -14.2574
4 25.7973 14.9352 -47.5213
4 27.155 10.862 -48.879
1 27.2603 16.3656 -15.5827
1 29.9313 13.6289 -15.6179
4 29.8705 13.5775 -48.879
4 28.5128 12.2197 -47.5213
1 28.5994 17.7994 -14.3178
1 31.4303 14.989 -14.3439
4 31.2282 14.9352 -47.5213
4 32.586 10.862 -48.879
1 32.6755 16.3849 -15.5425
1 35.3276 13.6039 -15.5899
4 35.3015 13.5775 -48.879
4 33.9438 12.2197 -47.5213
1 34.0983 17.6748 -14.2555
1 36.7955 14.946 -14.39
4 36.6593 14.9352 -47.5213
4 38.017 10.862 -48.879
1 38.1218 16.4022 -15.5705
1 40.8143 13.6081 -15.6609
4 40.7325 13.5775 -48.879
4 39.3747 12.2197 -47.5213
1 39.5628 17.685 -14.3944
1 42.2852 14.8941 -14.3672
4 42.0902 14.9352 -47.5213
4 43.448 10.862 -48.879
1 43.47 16.3255 -15.5769
1 46.2594 13.5926 -15.7239
4 46.1635 13.5775 -48.879
4 44.8058 12.2197 -47.5213
1 45.0025 17.6763 -14.4398
1 47.7264 14.8767 -14.5092
4 47.5213 14.9352 -47.5213
4 48.879 10.862 -48.879
1 48.9847 16.3915 -15.6618
1 52.0085 14.0445 -15.7258
4 51.5945 13.5775 -48.879
4 50.2368 12.2197 -47.5213
1 50.647 17.8197 -14.6143
1 53.6 15.9712 -15.4347
4 52.9522 14.9352 -47.5213
4 0 16.293 -48.879
3 2.50567 18.8504 -15.5494
4 2.7155 19.0085 -48.879
4 1.35775 17.6507 -47.5213
3 1.28127 22.2206 -15.1007
3 4.01559 20.232 -14.2235
4 4.07325 20.3663 -47.5213
4 5.431 16.293 -48.879
3 5.38557 21.6527 -15.5464
3 8.12484 18.9779 -15.5386
4 8.1465 19.0085 -48.879
4 6.78875 17.6507 -47.5213
3 6.71752 23.0373 -14.2057
3 9.47051 20.3812 -14.1765
4 9.50425 20.3663 -47.5213
4 10.862 16.293 -48.879
3 10.8665 21.7195 -15.5614
3 13.5931 18.9901 -15.5941
4 13.5775 19.0085 -48.879
4 12.2197 17.6507 -47.5213
3 12.2666 23.0717 -14.2026
3 14.9851 20.3591 -14.2325
4 14.9352 20.3663 -47.5213
4 16.293 16.293 -48.879
3 16.3113 21.711 -15.5859
1 19.0031 19.0196 -15.5462
4 19.0085 19.0085 -48.879
4 17.6507 17.6507 -47.5213
1 17.7434 23.0392 -14.1852
1 20.4644 20.3687 -14.2756
4 20.3663 20.3663 -47.5213
4 21.724 16.293 -48.879
1 21.7669 21.754 -15.5801
1 24.5135 19.0631 -15.5704
4 24.4395 19.0085 -48.879
4 23.0817 17.6507 -47.5213
1 23.2003 23.1496 -14.327
1 25.9569 20.4476 -14.2752
4 25.7973 20.3663 -47.5213
4 27.155 16.293 -48.879
1 27.28 21.7856 -15.6461
1 30.0045 19.1704 -15.6203
4 29.8705 19.0085 -48.879
4 28.5128 17.6507 -47.5213
1 28.7192 23.1448 -14.2651
1 31.3821 20.443 -14.2348
4 31.2282 20.3663 -47.5213
4 32.586 16.293 -48.879
1 32.647 21.8378 -15.5937
1 35.4193 19.0686 -15.5864
4 35.3015 19.0085 -48.879
4 33.9438 17.6507 -47.5213
1 33.9982 23.2149 -14.275
1 36.8719 20.4709 -14.3876
4 36.6593 20.3663 -47.5213
4 38.017 16.293 -48.879
1 38.1724 21.8794 -15.6556
1 40.8307 19.0586 -15.7399
4 40.7325 19.0085 -48.879
4 39.3747 17.6507 -47.5213
1 39.5611 23.1574 -14.361
1 42.1708 20.4326 -14.4216
4 42.0902 20.3663 -47.5213
4 43.448 16.293 -48.879
1 43.5601 21.7771 -15.6658
1 46.295 19.1063 -15.734
4 46.1635 19.0085 -48.879
4 44.8058 17.6507 -47.5213
1 44.9762 23.1837 -14.4249
1 47.7737 20.4174 -14.6048
4 47.5213 20.3663 -47.5213
4 48.879 16.293 -48.879
1 49.0758 21.8505 -15.6969
1 51.9474 19.4101 -15.6976
4 51.5945 19.0085 -48.879
4 50.2368 17.6507 -47.5213
1 50.7908 23.138 -14.7823
1 53.4983 21.2228 -15.4688
4 52.9522 20.3663 -47.5213
4 0 21.724 -48.879
3 2.5921 24.2647 -15.6581
4 2.7155 24.4395 -48.879
4 1.35775 23.0817 -47.5213
3 1.31215 28.7064 -13.9065
3 3.97898 25.7238 -14.2934
4 4.07325 25.7973 -47.5213
4 5.431 21.724 -48.879
3 5.39623 27.1297 -15.549
3 8.09334 24.4057 -15.6285
4 8.1465 24.4395 -48.879
4 6.78875 23.0817 -47.5213
3 6.77116 28.4091 -14.17
3 9.53901 25.8093 -14.2786
4 9.50425 25.7973 -47.5213
4 10.862 21.724 -48.879
3 10.8534 27.1761 -15.5562
3 13.6537 24.4426 -15.5354
4 13.5775 24.4395 -48.879
4 12.2197 23.0817 -47.5213
3 12.2275 28.5004 -14.1813
3 15.042 25.7792 -14.201
4 14.9352 25.7973 -47.5213
4 16.293 21.724 -48.879
3 16.2982 27.1766 -15.6208
1 18.9616 24.4295 -15.6287
4 19.0085 24.4395 -48.879
4 17.6507 23.0817 -47.5213
1 17.6819 28.4741 -14.2246
1 20.3458 25.7644 -14.2738
4 20.3663 25.7973 -47.5213
4 21.724 21.724 -48.879
1 21.7286 27.1706 -15.5638
1 24.5232 24.5239 -15.6603
4 24.4395 24.4395 -48.879
4 23.0817 23.0817 -47.5213
1 23.1839 28.4467 -14.283
1 25.8626 25.869 -14.2462
4 25.7973 25.7973 -47.5213
4 27.155 21.724 -48.879
1 27.2076 27.1871 -15.5486
1 29.958 24.5229 -15.5797
4 29.8705 24.4395 -48.879
4 28.5128 23.0817 -47.5213
1 28.5653 28.6996 -14.2164
1 31.3356 25.8485 -14.3389
4 31.2282 25.7973 -47.5213
4 32.586 21.724 -48.879
1 32.6615 27.2215 -15.6541