14635
 Atoms. Timestep: 115000
4 0 0 -54.31
4 0 2.7155 -51.5945
4 2.7155 0 -51.5945
4 2.7155 2.7155 -54.31
4 1.35775 1.35775 -52.9522
4 1.35775 4.07325 -50.2368
4 4.07325 1.35775 -50.2368
4 4.07325 4.07325 -52.9522
4 5.431 0 -54.31
4 5.431 2.7155 -51.5945
4 8.1465 0 -51.5945
4 8.1465 2.7155 -54.31
4 6.78875 1.35775 -52.9522
4 6.78875 4.07325 -50.2368
4 9.50425 1.35775 -50.2368
4 9.50425 4.07325 -52.9522
4 10.862 0 -54.31
4 10.862 2.7155 -51.5945
4 13.5775 0 -51.5945
4 13.5775 2.7155 -54.31
4 12.2197 1.35775 -52.9522
4 12.2197 4.07325 -50.2368
4 14.9352 1.35775 -50.2368
4 14.9352 4.07325 -52.9522
4 16.293 0 -54.31
4 16.293 2.7155 -51.5945
4 19.0085 0 -51.5945
4 19.0085 2.7155 -54.31
4 17.6507 1.35775 -52.9522
4 17.6507 4.07325 -50.2368
4 20.3663 1.35775 -50.2368
4 20.3663 4.07325 -52.9522
4 21.724 0 -54.31
4 21.724 2.7155 -51.5945
4 24.4395 0 -51.5945
4 24.4395 2.7155 -54.31
4 23.0817 1.35775 -52.9522
4 23.0817 4.07325 -50.2368
4 25.7973 1.35775 -50.2368
4 25.7973 4.07325 -52.9522
4 27.155 0 -54.31
4 27.155 2.7155 -51.5945
4 29.8705 0 -51.5945
4 29.8705 2.7155 -54.31
4 28.5128 1.35775 -52.9522
4 28.5128 4.07325 -50.2368
4 31.2282 1.35775 -50.2368
4 31.2282 4.07325 -52.9522
4 32.586 0 -54.31
4 32.586 2.7155 -51.5945
4 35.3015 0 -51.5945
4 35.3015 2.7155 -54.31
4 33.9438 1.35775 -52.9522
4 33.9438 4.07325 -50.2368
4 36.6593 1.35775 -50.2368
4 36.6593 4.07325 -52.9522
4 38.017 0 -54.31
4 38.017 2.7155 -51.5945
4 40.7325 0 -51.5945
4 40.7325 2.7155 -54.31
4 39.3747 1.35775 -52.9522
4 39.3747 4.07325 -50.2368
4 42.0902 1.35775 -50.2368
4 42.0902 4.07325 -52.9522
4 43.448 0 -54.31
4 43.448 2.7155 -51.5945
4 46.1635 0 -51.5945
4 46.1635 2.7155 -54.31
4 44.8058 1.35775 -52.9522
4 44.8058 4.07325 -50.2368
4 47.5213 1.35775 -50.2368
4 47.5213 4.07325 -52.9522
4 48.879 0 -54.31
4 48.879 2.7155 -51.5945
4 51.5945 0 -51.5945
4 51.5945 2.7155 -54.31
4 50.2368 1.35775 -52.9522
4 50.2368 4.07325 -50.2368
4 52.9522 1.35775 -50.2368
4 52.9522 4.07325 -52.9522
4 0 5.431 -54.31
4 0 8.1465 -51.5945
4 2.7155 5.431 -51.5945
4 2.7155 8.1465 -54.31
4 1.35775 6.78875 -52.9522
4 1.35775 9.50425 -50.2368
4 4.07325 6.78875 -50.2368
4 4.07325 9.50425 -52.9522
4 5.431 5.431 -54.31
4 5.431 8.1465 -51.5945
4 8.1465 5.431 -51.5945
4 8.1465 8.1465 -54.31
4 6.78875 6.78875 -52.9522
4 6.78875 9.50425 -50.2368
4 9.50425 6.78875 -50.2368
4 9.50425 9.50425 -52.9522
4 10.862 5.431 -54.31
4 10.862 8.1465 -51.5945
4 13.5775 5.431 -51.5945
4 13.5775 8.1465 -54.31
4 12.2197 6.78875 -52.9522
4 12.2197 9.50425 -50.2368
4 14.9352 6.78875 -50.2368
4 14.9352 9.50425 -52.9522
4 16.293 5.431 -54.31
4 16.293 8.1465 -51.5945
4 19.0085 5.431 -51.5945
4 19.0085 8.1465 -54.31
4 17.6507 6.78875 -52.9522
4 17.6507 9.50425 -50.2368
4 20.3663 6.78875 -50.2368
4 20.3663 9.50425 -52.9522
4 21.724 5.431 -54.31
4 21.724 8.1465 -51.5945
4 24.4395 5.431 -51.5945
4 24.4395 8.1465 -54.31
4 23.0817 6.78875 -52.9522
4 23.0817 9.50425 -50.2368
4 25.7973 6.78875 -50.2368
4 25.7973 9.50425 -52.9522
4 27.155 5.431 -54.31
4 27.155 8.1465 -51.5945
4 29.8705 5.431 -51.5945
4 29.8705 8.1465 -54.31
4 28.5128 6.78875 -52.9522
4 28.5128 9.50425 -50.2368
4 31.2282 6.78875 -50.2368
4 31.2282 9.50425 -52.9522
4 32.586 5.431 -54.31
4 32.586 8.1465 -51.5945
4 35.3015 5.431 -51.5945
4 35.3015 8.1465 -54.31
4 33.9438 6.78875 -52.9522
4 33.9438 9.50425 -50.2368
4 36.6593 6.78875 -50.2368
4 36.6593 9.50425 -52.9522
4 38.017 5.431 -54.31
4 38.017 8.1465 -51.5945
4 40.7325 5.431 -51.5945
4 40.7325 8.1465 -54.31
4 39.3747 6.78875 -52.9522
4 39.3747 9.50425 -50.2368
4 42.0902 6.78875 -50.2368
4 42.0902 9.50425 -52.9522
4 43.448 5.431 -54.31
4 43.448 8.1465 -51.5945
4 46.1635 5.431 -51.5945
4 46.1635 8.1465 -54.31
4 44.8058 6.78875 -52.9522
4 44.8058 9.50425 -50.2368
4 47.5213 6.78875 -50.2368
4 47.5213 9.50425 -52.9522
4 48.879 5.431 -54.31
4 48.879 8.1465 -51.5945
4 51.5945 5.431 -51.5945
4 51.5945 8.1465 -54.31
4 50.2368 6.78875 -52.9522
4 50.2368 9.50425 -50.2368
4 52.9522 6.78875 -50.2368
4 52.9522 9.50425 -52.9522
4 0 10.862 -54.31
4 0 13.5775 -51.5945
4 2.7155 10.862 -51.5945
4 2.7155 13.5775 -54.31
4 1.35775 12.2197 -52.9522
4 1.35775 14.9352 -50.2368
4 4.07325 12.2197 -50.2368
4 4.07325 14.9352 -52.9522
4 5.431 10.862 -54.31
4 5.431 13.5775 -51.5945
4 8.1465 10.862 -51.5945
4 8.1465 13.5775 -54.31
4 6.78875 12.2197 -52.9522
4 6.78875 14.9352 -50.2368
4 9.50425 12.2197 -50.2368
4 9.50425 14.9352 -52.9522
4 10.862 10.862 -54.31
4 10.862 13.5775 -51.5945
4 13.5775 10.862 -51.5945
4 13.5775 13.5775 -54.31
4 12.2197 12.2197 -52.9522
4 12.2197 14.9352 -50.2368
4 14.9352 12.2197 -50.2368
4 14.9352 14.9352 -52.9522
4 16.293 10.862 -54.31
4 16.293 13.5775 -51.5945
4 19.0085 10.862 -51.5945
4 19.0085 13.5775 -54.31
4 17.6507 12.2197 -52.9522
4 17.6507 14.9352 -50.2368
4 20.3663 12.2197 -50.2368
4 20.3663 14.9352 -52.9522
4 21.724 10.862 -54.31
4 21.724 13.5775 -51.5945
4 24.4395 10.862 -51.5945
4 24.4395 13.5775 -54.31
4 23.0817 12.2197 -52.9522
4 23.0817 14.9352 -50.2368
4 25.7973 12.2197 -50.2368
4 25.7973 14.9352 -52.9522
4 27.155 10.862 -54.31
4 27.155 13.5775 -51.5945
4 29.8705 10.862 -51.5945
4 29.8705 13.5775 -54.31
4 28.5128 12.2197 -52.9522
4 28.5128 14.9352 -50.2368
4 31.2282 12.2197 -50.2368
4 31.2282 14.9352 -52.9522
4 32.586 10.862 -54.31
4 32.586 13.5775 -51.5945
4 35.3015 10.862 -51.5945
4 35.3015 13.5775 -54.31
4 33.9438 12.2197 -52.9522
4 33.9438 14.9352 -50.2368
4 36.6593 12.2197 -50.2368
4 36.6593 14.9352 -52.9522
4 38.017 10.862 -54.31
4 38.017 13.5775 -51.5945
4 40.7325 10.862 -51.5945
4 40.7325 13.5775 -54.31
4 39.3747 12.2197 -52.9522
4 39.3747 14.9352 -50.2368
4 42.0902 12.2197 -50.2368
4 42.0902 14.9352 -52.9522
4 43.448 10.862 -54.31
4 43.448 13.5775 -51.5945
4 46.1635 10.862 -51.5945
4 46.1635 13.5775 -54.31
4 44.8058 12.2197 -52.9522
4 44.8058 14.9352 -50.2368
4 47.5213 12.2197 -50.2368
4 47.5213 14.9352 -52.9522
4 48.879 10.862 -54.31
4 48.879 13.5775 -51.5945
4 51.5945 10.862 -51.5945
4 51.5945 13.5775 -54.31
4 50.2368 12.2197 -52.9522
4 50.2368 14.9352 -50.2368
4 52.9522 12.2197 -50.2368
4 52.9522 14.9352 -52.9522
4 0 16.293 -54.31
4 0 19.0085 -51.5945
4 2.7155 16.293 -51.5945
4 2.7155 19.0085 -54.31
4 1.35775 17.6507 -52.9522
4 1.35775 20.3663 -50.2368
4 4.07325 17.6507 -50.2368
4 4.07325 20.3663 -52.9522
4 5.431 16.293 -54.31
4 5.431 19.0085 -51.5945
4 8.1465 16.293 -51.5945
4 8.1465 19.0085 -54.31
4 6.78875 17.6507 -52.9522
4 6.78875 20.3663 -50.2368
4 9.50425 17.6507 -50.2368
4 9.50425 20.3663 -52.9522
4 10.862 16.293 -54.31
4 10.862 19.0085 -51.5945
4 13.5775 16.293 -51.5945
4 13.5775 19.0085 -54.31
4 12.2197 17.6507 -52.9522
4 12.2197 20.3663 -50.2368
4 14.9352 17.6507 -50.2368
4 14.9352 20.3663 -52.9522
4 16.293 16.293 -54.31
4 16.293 19.0085 -51.5945
4 19.0085 16.293 -51.5945
4 19.0085 19.0085 -54.31
4 17.6507 17.6507 -52.9522
4 17.6507 20.3663 -50.2368
4 20.3663 17.6507 -50.2368
4 20.3663 20.3663 -52.9522
4 21.724 16.293 -54.31
4 21.724 19.0085 -51.5945
4 24.4395 16.293 -51.5945
4 24.4395 19.0085 -54.31
4 23.0817 17.6507 -52.9522
4 23.0817 20.3663 -50.2368
4 25.7973 17.6507 -50.2368
4 25.7973 20.3663 -52.9522
4 27.155 16.293 -54.31
4 27.155 19.0085 -51.5945
4 29.8705 16.293 -51.5945
4 29.8705 19.0085 -54.31
4 28.5128 17.6507 -52.9522
4 28.5128 20.3663 -50.2368
4 31.2282 17.6507 -50.2368
4 31.2282 20.3663 -52.9522
4 32.586 16.293 -54.31
4 32.586 19.0085 -51.5945
4 35.3015 16.293 -51.5945
4 35.3015 19.0085 -54.31
4 33.9438 17.6507 -52.9522
4 33.9438 20.3663 -50.2368
4 36.6593 17.6507 -50.2368
4 36.6593 20.3663 -52.9522
4 38.017 16.293 -54.31
4 38.017 19.0085 -51.5945
4 40.7325 16.293 -51.5945
4 40.7325 19.0085 -54.31
4 39.3747 17.6507 -52.9522
4 39.3747 20.3663 -50.2368
4 42.0902 17.6507 -50.2368
4 42.0902 20.3663 -52.9522
4 43.448 16.293 -54.31
4 43.448 19.0085 -51.5945
4 46.1635 16.293 -51.5945
4 46.1635 19.0085 -54.31
4 44.8058 17.6507 -52.9522
4 44.8058 20.3663 -50.2368
4 47.5213 17.6507 -50.2368
4 47.5213 20.3663 -52.9522
4 48.879 16.293 -54.31
4 48.879 19.0085 -51.5945
4 51.5945 16.293 -51.5945
4 51.5945 19.0085 -54.31
4 50.2368 17.6507 -52.9522
4 50.2368 20.3663 -50.2368
4 52.9522 17.6507 -50.2368
4 52.9522 20.3663 -52.9522
4 0 21.724 -54.31
4 0 24.4395 -51.5945
4 2.7155 21.724 -51.5945
4 2.7155 24.4395 -54.31
4 1.35775 23.0817 -52.9522
4 1.35775 25.7973 -50.2368
4 4.07325 23.0817 -50.2368
4 4.07325 25.7973 -52.9522
4 5.431 21.724 -54.31
4 5.431 24.4395 -51.5945
4 8.1465 21.724 -51.5945
4 8.1465 24.4395 -54.31
4 6.78875 23.0817 -52.9522
4 6.78875 25.7973 -50.2368
4 9.50425 23.0817 -50.2368
4 9.50425 25.7973 -52.9522
4 10.862 21.724 -54.31
4 10.862 24.4395 -51.5945
4 13.5775 21.724 -51.5945
4 13.5775 24.4395 -54.31
4 12.2197 23.0817 -52.9522
4 12.2197 25.7973 -50.2368
4 14.9352 23.0817 -50.2368
4 14.9352 25.7973 -52.9522
4 16.293 21.724 -54.31
4 16.293 24.4395 -51.5945
4 19.0085 21.724 -51.5945
4 19.0085 24.4395 -54.31
4 17.6507 23.0817 -52.9522
4 17.6507 25.7973 -50.2368
4 20.3663 23.0817 -50.2368
4 20.3663 25.7973 -52.9522
4 21.724 21.724 -54.31
4 21.724 24.4395 -51.5945
4 24.4395 21.724 -51.5945
4 24.4395 24.4395 -54.31
4 23.0817 23.0817 -52.9522
4 23.0817 25.7973 -50.2368
4 25.7973 23.0817 -50.2368
4 25.7973 25.7973 -52.9522
4 27.155 21.724 -54.31
4 27.155 24.4395 -51.5945
4 29.8705 21.724 -51.5945
4 29.8705 24.4395 -54.31
4 28.5128 23.0817 -52.9522
4 28.5128 25.7973 -50.2368
4 31.2282 23.0817 -50.2368
4 31.2282 25.7973 -52.9522
4 32.586 21.724 -54.31
4 32.586 24.4395 -51.5945
4 35.3015 21.724 -51.5945
4 35.3015 24.4395 -54.31
4 33.9438 23.0817 -52.9522
4 33.9438 25.7973 -50.2368
4 36.6593 23.0817 -50.2368
4 36.6593 25.7973 -52.9522
4 38.017 21.724 -54.31
4 38.017 24.4395 -51.5945
4 40.7325 21.724 -51.5945
4 40.7325 24.4395 -54.31
4 39.3747 23.0817 -52.9522
4 39.3747 25.7973 -50.2368
4 42.0902 23.0817 -50.2368
4 42.0902 25.7973 -52.9522
4 43.448 21.724 -54.31
4 43.448 24.4395 -51.5945
4 46.1635 21.724 -51.5945
4 46.1635 24.4395 -54.31
4 44.8058 23.0817 -52.9522
4 44.8058 25.7973 -50.2368
4 47.5213 23.0817 -50.2368
4 47.5213 25.7973 -52.9522
4 48.879 21.724 -54.31
4 48.879 24.4395 -51.5945
4 51.5945 21.724 -51.5945
4 51.5945 24.4395 -54.31
4 50.2368 23.0817 -52.9522
4 50.2368 25.7973 -50.2368
4 52.9522 23.0817 -50.2368
4 52.9522 25.7973 -52.9522
4 0 27.155 -54.31
4 0 29.8705 -51.5945
4 2.7155 27.155 -51.5945
4 2.7155 29.8705 -54.31
4 1.35775 28.5128 -52.9522
4 1.35775 31.2282 -50.2368
4 4.07325 28.5128 -50.2368
4 4.07325 31.2282 -52.9522
4 5.431 27.155 -54.31
4 5.431 29.8705 -51.5945
4 8.1465 27.155 -51.5945
4 8.1465 29.8705 -54.31
4 6.78875 28.5128 -52.9522
4 6.78875 31.2282 -50.2368
4 9.50425 28.5128 -50.2368
4 9.50425 31.2282 -52.9522
4 10.862 27.155 -54.31
4 10.862 29.8705 -51.5945
4 13.5775 27.155 -51.5945
4 13.5775 29.8705 -54.31
4 12.2197 28.5128 -52.9522
4 12.2197 31.2282 -50.2368
4 14.9352 28.5128 -50.2368
4 14.9352 31.2282 -52.9522
4 16.293 27.155 -54.31
4 16.293 29.8705 -51.5945
4 19.0085 27.155 -51.5945
4 19.0085 29.8705 -54.31
4 17.6507 28.5128 -52.9522
4 17.6507 31.2282 -50.2368
4 20.3663 28.5128 -50.2368
4 20.3663 31.2282 -52.9522
4 21.724 27.155 -54.31
4 21.724 29.8705 -51.5945
4 24.4395 27.155 -51.5945
4 24.4395 29.8705 -54.31
4 23.0817 28.5128 -52.9522
4 23.0817 31.2282 -50.2368
4 25.7973 28.5128 -50.2368
4 25.7973 31.2282 -52.9522
4 27.155 27.155 -54.31
4 27.155 29.8705 -51.5945
4 29.8705 27.155 -51.5945
4 29.8705 29.8705 -54.31
4 28.5128 28.5128 -52.9522
4 28.5128 31.2282 -50.2368
4 31.2282 28.5128 -50.2368
4 31.2282 31.2282 -52.9522
4 32.586 27.155 -54.31
4 32.586 29.8705 -51.5945
4 35.3015 27.155 -51.5945
4 35.3015 29.8705 -54.31
4 33.9438 28.5128 -52.9522
4 33.9438 31.2282 -50.2368
4 36.6593 28.5128 -50.2368
4 36.6593 31.2282 -52.9522
4 38.017 27.155 -54.31
4 38.017 29.8705 -51.5945
4 40.7325 27.155 -51.5945
4 40.7325 29.8705 -54.31
4 39.3747 28.5128 -52.9522
4 39.3747 31.2282 -50.2368
4 42.0902 28.5128 -50.2368
4 42.0902 31.2282 -52.9522
4 43.448 27.155 -54.31
4 43.448 29.8705 -51.5945
4 46.1635 27.155 -51.5945
4 46.1635 29.8705 -54.31
4 44.8058 28.5128 -52.9522
4 44.8058 31.2282 -50.2368
4 47.5213 28.5128 -50.2368
4 47.5213 31.2282 -52.9522
4 48.879 27.155 -54.31
4 48.879 29.8705 -51.5945
4 51.5945 27.155 -51.5945
4 51.5945 29.8705 -54.31
4 50.2368 28.5128 -52.9522
4 50.2368 31.2282 -50.2368
4 52.9522 28.5128 -50.2368
4 52.9522 31.2282 -52.9522
4 0 32.586 -54.31
4 0 35.3015 -51.5945
4 2.7155 32.586 -51.5945
4 2.7155 35.3015 -54.31
4 1.35775 33.9438 -52.9522
4 1.35775 36.6593 -50.2368
4 4.07325 33.9438 -50.2368
4 4.07325 36.6593 -52.9522
4 5.431 32.586 -54.31
4 5.431 35.3015 -51.5945
4 8.1465 32.586 -51.5945
4 8.1465 35.3015 -54.31
4 6.78875 33.9438 -52.9522
4 6.78875 36.6593 -50.2368
4 9.50425 33.9438 -50.2368
4 9.50425 36.6593 -52.9522
4 10.862 32.586 -54.31
4 10.862 35.3015 -51.5945
4 13.5775 32.586 -51.5945
4 13.5775 35.3015 -54.31
4 12.2197 33.9438 -52.9522
4 12.2197 36.6593 -50.2368
4 14.9352 33.9438 -50.2368
4 14.9352 36.6593 -52.9522
4 16.293 32.586 -54.31
4 16.293 35.3015 -51.5945
4 19.0085 32.586 -51.5945
4 19.0085 35.3015 -54.31
4 17.6507 33.9438 -52.9522
4 17.6507 36.6593 -50.2368
4 20.3663 33.9438 -50.2368
4 20.3663 36.6593 -52.9522
4 21.724 32.586 -54.31
4 21.724 35.3015 -51.5945
4 24.4395 32.586 -51.5945
4 24.4395 35.3015 -54.31
4 23.0817 33.9438 -52.9522
4 23.0817 36.6593 -50.2368
4 25.7973 33.9438 -50.2368
4 25.7973 36.6593 -52.9522
4 27.155 32.586 -54.31
4 27.155 35.3015 -51.5945
4 29.8705 32.586 -51.5945
4 29.8705 35.3015 -54.31
4 28.5128 33.9438 -52.9522
4 28.5128 36.6593 -50.2368
4 31.2282 33.9438 -50.2368
4 31.2282 36.6593 -52.9522
4 32.586 32.586 -54.31
4 32.586 35.3015 -51.5945
4 35.3015 32.586 -51.5945
4 35.3015 35.3015 -54.31
4 33.9438 33.9438 -52.9522
4 33.9438 36.6593 -50.2368
4 36.6593 33.9438 -50.2368
4 36.6593 36.6593 -52.9522
4 38.017 32.586 -54.31
4 38.017 35.3015 -51.5945
4 40.7325 32.586 -51.5945
4 40.7325 35.3015 -54.31
4 39.3747 33.9438 -52.9522
4 39.3747 36.6593 -50.2368
4 42.0902 33.9438 -50.2368
4 42.0902 36.6593 -52.9522
4 43.448 32.586 -54.31
4 43.448 35.3015 -51.5945
4 46.1635 32.586 -51.5945
4 46.1635 35.3015 -54.31
4 44.8058 33.9438 -52.9522
4 44.8058 36.6593 -50.2368
4 47.5213 33.9438 -50.2368
4 47.5213 36.6593 -52.9522
4 48.879 32.586 -54.31
4 48.879 35.3015 -51.5945
4 51.5945 32.586 -51.5945
4 51.5945 35.3015 -54.31
4 50.2368 33.9438 -52.9522
4 50.2368 36.6593 -50.2368
4 52.9522 33.9438 -50.2368
4 52.9522 36.6593 -52.9522
4 0 38.017 -54.31
4 0 40.7325 -51.5945
4 2.7155 38.017 -51.5945
4 2.7155 40.7325 -54.31
4 1.35775 39.3747 -52.9522
4 1.35775 42.0902 -50.2368
4 4.07325 39.3747 -50.2368
4 4.07325 42.0902 -52.9522
4 5.431 38.017 -54.31
4 5.431 40.7325 -51.5945
4 8.1465 38.017 -51.5945
4 8.1465 40.7325 -54.31
4 6.78875 39.3747 -52.9522
4 6.78875 42.0902 -50.2368
4 9.50425 39.3747 -50.2368
4 9.50425 42.0902 -52.9522
4 10.862 38.017 -54.31
4 10.862 40.7325 -51.5945
4 13.5775 38.017 -51.5945
4 13.5775 40.7325 -54.31
4 12.2197 39.3747 -52.9522
4 12.2197 42.0902 -50.2368
4 14.9352 39.3747 -50.2368
4 14.9352 42.0902 -52.9522
4 16.293 38.017 -54.31
4 16.293 40.7325 -51.5945
4 19.0085 38.017 -51.5945
4 19.0085 40.7325 -54.31
4 17.6507 39.3747 -52.9522
4 17.6507 42.0902 -50.2368
4 20.3663 39.3747 -50.2368
4 20.3663 42.0902 -52.9522
4 21.724 38.017 -54.31
4 21.724 40.7325 -51.5945
4 24.4395 38.017 -51.5945
4 24.4395 40.7325 -54.31
4 23.0817 39.3747 -52.9522
4 23.0817 42.0902 -50.2368
4 25.7973 39.3747 -50.2368
4 25.7973 42.0902 -52.9522
4 27.155 38.017 -54.31
4 27.155 40.7325 -51.5945
4 29.8705 38.017 -51.5945
4 29.8705 40.7325 -54.31
4 28.5128 39.3747 -52.9522
4 28.5128 42.0902 -50.2368
4 31.2282 39.3747 -50.2368
4 31.2282 42.0902 -52.9522
4 32.586 38.017 -54.31
4 32.586 40.7325 -51.5945
4 35.3015 38.017 -51.5945
4 35.3015 40.7325 -54.31
4 33.9438 39.3747 -52.9522
4 33.9438 42.0902 -50.2368
4 36.6593 39.3747 -50.2368
4 36.6593 42.0902 -52.9522
4 38.017 38.017 -54.31
4 38.017 40.7325 -51.5945
4 40.7325 38.017 -51.5945
4 40.7325 40.7325 -54.31
4 39.3747 39.3747 -52.9522
4 39.3747 42.0902 -50.2368
4 42.0902 39.3747 -50.2368
4 42.0902 42.0902 -52.9522
4 43.448 38.017 -54.31
4 43.448 40.7325 -51.5945
4 46.1635 38.017 -51.5945
4 46.1635 40.7325 -54.31
4 44.8058 39.3747 -52.9522
4 44.8058 42.0902 -50.2368
4 47.5213 39.3747 -50.2368
4 47.5213 42.0902 -52.9522
4 48.879 38.017 -54.31
4 48.879 40.7325 -51.5945
4 51.5945 38.017 -51.5945
4 51.5945 40.7325 -54.31
4 50.2368 39.3747 -52.9522
4 50.2368 42.0902 -50.2368
4 52.9522 39.3747 -50.2368
4 52.9522 42.0902 -52.9522
4 0 43.448 -54.31
4 0 46.1635 -51.5945
4 2.7155 43.448 -51.5945
4 2.7155 46.1635 -54.31
4 1.35775 44.8058 -52.9522
4 1.35775 47.5213 -50.2368
4 4.07325 44.8058 -50.2368
4 4.07325 47.5213 -52.9522
4 5.431 43.448 -54.31
4 5.431 46.1635 -51.5945
4 8.1465 43.448 -51.5945
4 8.1465 46.1635 -54.31
4 6.78875 44.8058 -52.9522
4 6.78875 47.5213 -50.2368
4 9.50425 44.8058 -50.2368
4 9.50425 47.5213 -52.9522
4 10.862 43.448 -54.31
4 10.862 46.1635 -51.5945
4 13.5775 43.448 -51.5945
4 13.5775 46.1635 -54.31
4 12.2197 44.8058 -52.9522
4 12.2197 47.5213 -50.2368
4 14.9352 44.8058 -50.2368
4 14.9352 47.5213 -52.9522
4 16.293 43.448 -54.31
4 16.293 46.1635 -51.5945
4 19.0085 43.448 -51.5945
4 19.0085 46.1635 -54.31
4 17.6507 44.8058 -52.9522
4 17.6507 47.5213 -50.2368
4 20.3663 44.8058 -50.2368
4 20.3663 47.5213 -52.9522
4 21.724 43.448 -54.31
4 21.724 46.1635 -51.5945
4 24.4395 43.448 -51.5945
4 24.4395 46.1635 -54.31
4 23.0817 44.8058 -52.9522
4 23.0817 47.5213 -50.2368
4 25.7973 44.8058 -50.2368
4 25.7973 47.5213 -52.9522
4 27.155 43.448 -54.31
4 27.155 46.1635 -51.5945
4 29.8705 43.448 -51.5945
4 29.8705 46.1635 -54.31
4 28.5128 44.8058 -52.9522
4 28.5128 47.5213 -50.2368
4 31.2282 44.8058 -50.2368
4 31.2282 47.5213 -52.9522
4 32.586 43.448 -54.31
4 32.586 46.1635 -51.5945
4 35.3015 43.448 -51.5945
4 35.3015 46.1635 -54.31
4 33.9438 44.8058 -52.9522
4 33.9438 47.5213 -50.2368
4 36.6593 44.8058 -50.2368
4 36.6593 47.5213 -52.9522
4 38.017 43.448 -54.31
4 38.017 46.1635 -51.5945
4 40.7325 43.448 -51.5945
4 40.7325 46.1635 -54.31
4 39.3747 44.8058 -52.9522
4 39.3747 47.5213 -50.2368
4 42.0902 44.8058 -50.2368
4 42.0902 47.5213 -52.9522
4 43.448 43.448 -54.31
4 43.448 46.1635 -51.5945
4 46.1635 43.448 -51.5945
4 46.1635 46.1635 -54.31
4 44.8058 44.8058 -52.9522
4 44.8058 47.5213 -50.2368
4 47.5213 44.8058 -50.2368
4 47.5213 47.5213 -52.9522
4 48.879 43.448 -54.31
4 48.879 46.1635 -51.5945
4 51.5945 43.448 -51.5945
4 51.5945 46.1635 -54.31
4 50.2368 44.8058 -52.9522
4 50.2368 47.5213 -50.2368
4 52.9522 44.8058 -50.2368
4 52.9522 47.5213 -52.9522
4 0 48.879 -54.31
4 0 51.5945 -51.5945
4 2.7155 48.879 -51.5945
4 2.7155 51.5945 -54.31
4 1.35775 50.2368 -52.9522
4 1.35775 52.9522 -50.2368
4 4.07325 50.2368 -50.2368
4 4.07325 52.9522 -52.9522
4 5.431 48.879 -54.31
4 5.431 51.5945 -51.5945
4 8.1465 48.879 -51.5945
4 8.1465 51.5945 -54.31
4 6.78875 50.2368 -52.9522
4 6.78875 52.9522 -50.2368
4 9.50425 50.2368 -50.2368
4 9.50425 52.9522 -52.9522
4 10.862 48.879 -54.31
4 10.862 51.5945 -51.5945
4 13.5775 48.879 -51.5945
4 13.5775 51.5945 -54.31
4 12.2197 50.2368 -52.9522
4 12.2197 52.9522 -50.2368
4 14.9352 50.2368 -50.2368
4 14.9352 52.9522 -52.9522
4 16.293 48.879 -54.31
4 16.293 51.5945 -51.5945
4 19.0085 48.879 -51.5945
4 19.0085 51.5945 -54.31
4 17.6507 50.2368 -52.9522
4 17.6507 52.9522 -50.2368
4 20.3663 50.2368 -50.2368
4 20.3663 52.9522 -52.9522
4 21.724 48.879 -54.31
4 21.724 51.5945 -51.5945
4 24.4395 48.879 -51.5945
4 24.4395 51.5945 -54.31
4 23.0817 50.2368 -52.9522
4 23.0817 52.9522 -50.2368
4 25.7973 50.2368 -50.2368
4 25.7973 52.9522 -52.9522
4 27.155 48.879 -54.31
4 27.155 51.5945 -51.5945
4 29.8705 48.879 -51.5945
4 29.8705 51.5945 -54.31
4 28.5128 50.2368 -52.9522
4 28.5128 52.9522 -50.2368
4 31.2282 50.2368 -50.2368
4 31.2282 52.9522 -52.9522
4 32.586 48.879 -54.31
4 32.586 51.5945 -51.5945
4 35.3015 48.879 -51.5945
4 35.3015 51.5945 -54.31
4 33.9438 50.2368 -52.9522
4 33.9438 52.9522 -50.2368
4 36.6593 50.2368 -50.2368
4 36.6593 52.9522 -52.9522
4 38.017 48.879 -54.31
4 38.017 51.5945 -51.5945
4 40.7325 48.879 -51.5945
4 40.7325 51.5945 -54.31
4 39.3747 50.2368 -52.9522
4 39.3747 52.9522 -50.2368
4 42.0902 50.2368 -50.2368
4 42.0902 52.9522 -52.9522
4 43.448 48.879 -54.31
4 43.448 51.5945 -51.5945
4 46.1635 48.879 -51.5945
4 46.1635 51.5945 -54.31
4 44.8058 50.2368 -52.9522
4 44.8058 52.9522 -50.2368
4 47.5213 50.2368 -50.2368
4 47.5213 52.9522 -52.9522
4 48.879 48.879 -54.31
4 48.879 51.5945 -51.5945
4 51.5945 48.879 -51.5945
4 51.5945 51.5945 -54.31
4 50.2368 50.2368 -52.9522
4 50.2368 52.9522 -50.2368
4 52.9522 50.2368 -50.2368
4 52.9522 52.9522 -52.9522
4 0 0 -48.879
3 2.61345 2.61971 -25.6113
4 2.7155 2.7155 -48.879
4 1.35775 1.35775 -47.5213
3 0.931956 5.87556 -25.235
3 3.91916 4.046 -24.3062
4 4.07325 4.07325 -47.5213
4 5.431 0 -48.879
3 5.31639 5.33872 -25.5844
3 8.04663 2.64058 -25.5811
4 8.1465 2.7155 -48.879
4 6.78875 1.35775 -47.5213
3 6.66163 6.69443 -24.3509
3 9.43609 4.06185 -24.3947
4 9.50425 4.07325 -47.5213
4 10.862 0 -48.879
3 10.8192 5.45554 -25.7099
3 13.5626 2.68614 -25.6406
4 13.5775 2.7155 -48.879
4 12.2197 1.35775 -47.5213
3 12.1881 6.7904 -24.2958
3 14.9188 4.07032 -24.3339
4 14.9352 4.07325 -47.5213
4 16.293 0 -48.879
3 16.2208 5.45011 -25.5854
1 18.9555 2.63907 -25.6304
4 19.0085 2.7155 -48.879
4 17.6507 1.35775 -47.5213
1 17.5965 6.76902 -24.261
1 20.3102 4.03447 -24.376
4 20.3663 4.07325 -47.5213
4 21.724 0 -48.879
1 21.621 5.35677 -25.6719
1 24.4109 2.63312 -25.6999
4 24.4395 2.7155 -48.879
4 23.0817 1.35775 -47.5213
1 23.0032 6.74302 -24.4119
1 25.8022 4.05829 -24.4212
4 25.7973 4.07325 -47.5213
4 27.155 0 -48.879
1 27.1888 5.45333 -25.6718
1 29.9074 2.64464 -25.6562
4 29.8705 2.7155 -48.879
4 28.5128 1.35775 -47.5213
1 28.4935 6.81909 -24.3331
1 31.2477 4.11962 -24.3682
4 31.2282 4.07325 -47.5213
4 32.586 0 -48.879
1 32.6331 5.49053 -25.598
1 35.3284 2.68482 -25.5467
4 35.3015 2.7155 -48.879
4 33.9438 1.35775 -47.5213
1 34.0088 6.8064 -24.2608
1 36.7427 4.09302 -24.1899
4 36.6593 4.07325 -47.5213
4 38.017 0 -48.879
1 38.0121 5.44807 -25.5771
1 40.7741 2.70119 -25.5909
4 40.7325 2.7155 -48.879
4 39.3747 1.35775 -47.5213
1 39.458 6.66323 -24.3096
1 42.2383 4.01583 -24.3856
4 42.0902 4.07325 -47.5213
4 43.448 0 -48.879
1 43.5043 5.48432 -25.691
1 46.2087 2.75006 -25.6214
4 46.1635 2.7155 -48.879
4 44.8058 1.35775 -47.5213
1 44.9107 6.78517 -24.3608
1 47.7478 4.07892 -24.462
4 47.5213 4.07325 -47.5213
4 48.879 0 -48.879
1 49.0654 5.58998 -25.6668
1 51.8375 2.91313 -25.6993
4 51.5945 2.7155 -48.879
4 50.2368 1.35775 -47.5213
1 50.6984 6.95262 -24.5167
1 53.506 3.78794 -24.3028
4 52.9522 4.07325 -47.5213
4 0 5.431 -48.879
3 2.43917 7.818 -25.6766
4 2.7155 8.1465 -48.879
4 1.35775 6.78875 -47.5213
3 0.991369 11.2092 -25.1388
3 3.76351 9.19813 -24.3697
4 4.07325 9.50425 -47.5213
4 5.431 5.431 -48.879
3 5.23327 10.6855 -25.4855
3 8.08331 8.11501 -25.6406
4 8.1465 8.1465 -48.879
4 6.78875 6.78875 -47.5213
3 6.55111 12.2637 -24.3507
3 9.42111 9.5042 -24.3289
4 9.50425 9.50425 -47.5213
4 10.862 5.431 -48.879
3 10.8054 10.8395 -25.6334
3 13.491 8.10508 -25.6411
4 13.5775 8.1465 -48.879
4 12.2197 6.78875 -47.5213
3 12.1212 12.2532 -24.3295
3 14.894 9.47411 -24.3047
4 14.9352 9.50425 -47.5213
4 16.293 5.431 -48.879
3 16.2412 10.8754 -25.6214
1 18.9913 8.0796 -25.6371
4 19.0085 8.1465 -48.879
4 17.6507 6.78875 -47.5213
1 17.5765 12.2576 -24.3069
1 20.314 9.45278 -24.3121
4 20.3663 9.50425 -47.5213
4 21.724 5.431 -48.879
1 21.6969 10.8551 -25.6058
1 24.4803 8.1185 -25.6022
4 24.4395 8.1465 -48.879
4 23.0817 6.78875 -47.5213
1 23.0139 12.2956 -24.3985
1 25.7807 9.53511 -24.2285
4 25.7973 9.50425 -47.5213
4 27.155 5.431 -48.879
1 27.1851 10.8727 -25.6218
1 29.9189 8.15659 -25.5976
4 29.8705 8.1465 -48.879
4 28.5128 6.78875 -47.5213
1 28.5327 12.2824 -24.3558
1 31.2374 9.49997 -24.2933
4 31.2282 9.50425 -47.5213
4 32.586 5.431 -48.879
1 32.6201 10.7951 -25.68
1 35.2698 8.21129 -25.6499
4 35.3015 8.1465 -48.879
4 33.9438 6.78875 -47.5213
1 34.015 12.135 -24.3077
1 36.6817 9.49897 -24.2644
4 36.6593 9.50425 -47.5213
4 38.017 5.431 -48.879
1 37.9596 10.8702 -25.6349
1 40.7069 8.09623 -25.5736
4 40.7325 8.1465 -48.879
4 39.3747 6.78875 -47.5213
1 39.3984 12.1763 -24.2772
1 42.139 9.47891 -24.2925
4 42.0902 9.50425 -47.5213
4 43.448 5.431 -48.879
1 43.4791 10.8899 -25.638
1 46.2328 8.24952 -25.6163
4 46.1635 8.1465 -48.879
4 44.8058 6.78875 -47.5213
1 44.9599 12.2071 -24.4551
1 47.8316 9.38743 -24.4662
4 47.5213 9.50425 -47.5213
4 48.879 5.431 -48.879
1 49.0701 11.0035 -25.6548
1 51.9066 8.51938 -25.7689
4 51.5945 8.1465 -48.879
4 50.2368 6.78875 -47.5213
1 50.6524 12.3475 -24.3986
1 53.2901 10.4001 -25.3359
4 52.9522 9.50425 -47.5213
4 0 10.862 -48.879
3 2.36955 13.2148 -25.6456
4 2.7155 13.5775 -48.879
4 1.35775 12.2197 -47.5213
3 0.928755 17.9551 -24.2367
3 3.70125 14.8242 -24.5293
4 4.07325 14.9352 -47.5213
4 5.431 10.862 -48.879
3 5.28856 16.1774 -25.6362
3 8.11948 13.5758 -25.6529
4 8.1465 13.5775 -48.879
4 6.78875 12.2197 -47.5213
3 6.59843 17.6076 -24.4015
3 9.45857 14.9965 -24.4295
4 9.50425 14.9352 -47.5213
4 10.862 10.862 -48.879
3 10.8552 16.3096 -25.6569
3 13.4886 13.6011 -25.5976
4 13.5775 13.5775 -48.879
4 12.2197 12.2197 -47.5213
3 12.1257 17.7702 -24.3427
3 14.8947 15.0048 -24.3265
4 14.9352 14.9352 -47.5213
4 16.293 10.862 -48.879
3 16.2946 16.3698 -25.5484
1 19.0423 13.5657 -25.5684
4 19.0085 13.5775 -48.879
4 17.6507 12.2197 -47.5213
1 17.6391 17.7551 -24.2976
1 20.2425 15.1175 -24.2514
4 20.3663 14.9352 -47.5213
4 21.724 10.862 -48.879
1 21.7069 16.3766 -25.5933
1 24.504 13.6403 -25.5931
4 24.4395 13.5775 -48.879
4 23.0817 12.2197 -47.5213
1 23.1636 17.7193 -24.322
1 25.8473 14.997 -24.2517
4 25.7973 14.9352 -47.5213
4 27.155 10.862 -48.879
1 27.1718 16.3519 -25.5556
1 29.8752 13.6043 -25.7203
4 29.8705 13.5775 -48.879
4 28.5128 12.2197 -47.5213
1 28.4714 17.7657 -24.2759
1 31.2164 14.9671 -24.3479
4 31.2282 14.9352 -47.5213
4 32.586 10.862 -48.879
1 32.5864 16.3163 -25.6417
1 35.3818 13.5685 -25.6491
4 35.3015 13.5775 -48.879
4 33.9438 12.2197 -47.5213
1 33.9642 17.6564 -24.3143
1 36.7188 15.0228 -24.3213
4 36.6593 14.9352 -47.5213
4 38.017 10.862 -48.879
1 38.0389 16.3057 -25.6675
1 40.7831 13.5559 -25.6039
4 40.7325 13.5775 -48.879
4 39.3747 12.2197 -47.5213
1 39.4725 17.6648 -24.4574
1 42.1979 14.9297 -24.3782
4 42.0902 14.9352 -47.5213
4 43.448 10.862 -48.879
1 43.4792 16.3181 -25.6317
1 46.2811 13.6274 -25.6957
4 46.1635 13.5775 -48.879
4 44.8058 12.2197 -47.5213
1 44.916 17.6692 -24.419
1 47.8172 14.9565 -24.4495
4 47.5213 14.9352 -47.5213
4 48.879 10.862 -48.879
1 49.074 16.4774 -25.597
1 51.9391 13.8793 -25.6687
4 51.5945 13.5775 -48.879
4 50.2368 12.2197 -47.5213
1 50.6353 17.8897 -24.5437
1 53.3854 15.8739 -25.2936
4 52.9522 14.9352 -47.5213
4 0 16.293 -48.879
3 2.6095 18.879 -25.7181
4 2.7155 19.0085 -48.879
4 1.35775 17.6507 -47.5213
3 0.98734 22.2427 -25.1758
3 3.88012 20.2844 -24.3294
4 4.07325 20.3663 -47.5213
4 5.431 16.293 -48.879
3 5.26825 21.5889 -25.5739
3 8.09901 18.9816 -25.599
4 8.1465 19.0085 -48.879
4 6.78875 17.6507 -47.5213
3 6.57214 22.9586 -24.3286
3 9.38981 20.4455 -24.3301
4 9.50425 20.3663 -47.5213
4 10.862 16.293 -48.879
3 10.8292 21.7307 -25.6348
3 13.6452 19.0532 -25.5983
4 13.5775 19.0085 -48.879
4 12.2197 17.6507 -47.5213
3 12.2219 23.0758 -24.3362
3 15.0157 20.3672 -24.3661
4 14.9352 20.3663 -47.5213
4 16.293 16.293 -48.879
3 16.3647 21.7057 -25.6484
1 19.0915 19.0782 -25.5924
4 19.0085 19.0085 -48.879
4 17.6507 17.6507 -47.5213
1 17.7586 23.0753 -24.2945
1 20.3731 20.4409 -24.3044
4 20.3663 20.3663 -47.5213
4 21.724 16.293 -48.879
1 21.7529 21.7111 -25.6147
1 24.4782 19.0055 -25.5969
4 24.4395 19.0085 -48.879
4 23.0817 17.6507 -47.5213
1 23.157 23.1032 -24.2766
1 25.8597 20.4299 -24.2012
4 25.7973 20.3663 -47.5213
4 27.155 16.293 -48.879
1 27.237 21.7954 -25.536
1 29.8835 19.065 -25.6296
4 29.8705 19.0085 -48.879
4 28.5128 17.6507 -47.5213
1 28.5676 23.2225 -24.2478
1 31.2057 20.4094 -24.2765
4 31.2282 20.3663 -47.5213
4 32.586 16.293 -48.879
1 32.6943 21.749 -25.5783
1 35.3108 19.0603 -25.7147
4 35.3015 19.0085 -48.879
4 33.9438 17.6507 -47.5213
1 34.0127 23.1706 -24.1897
1 36.6759 20.3327 -24.4256
4 36.6593 20.3663 -47.5213
4 38.017 16.293 -48.879
1 38.059 21.7041 -25.6637
1 40.7359 19.1029 -25.6813
4 40.7325 19.0085 -48.879
4 39.3747 17.6507 -47.5213
1 39.3867 23.0982 -24.3896
1 42.1785 20.3809 -24.3701
4 42.0902 20.3663 -47.5213
4 43.448 16.293 -48.879
1 43.4389 21.7514 -25.6807
1 46.2376 19.1055 -25.6865
4 46.1635 19.0085 -48.879
4 44.8058 17.6507 -47.5213
1 44.8214 23.1344 -24.466
1 47.7536 20.4372 -24.4372
4 47.5213 20.3663 -47.5213
4 48.879 16.293 -48.879
1 49.0761 21.8865 -25.7302
1 51.8915 19.3667 -25.7181
4 51.5945 19.0085 -48.879
4 50.2368 17.6507 -47.5213
1 50.6339 23.3486 -24.5441
1 53.4703 21.2604 -25.3573
4 52.9522 20.3663 -47.5213
4 0 21.724 -48.879
3 2.41418 24.1917 -25.6354
4 2.7155 24.4395 -48.879
4 1.35775 23.0817 -47.5213
3 1.08283 28.7651 -24.254
3 3.74483 25.6744 -24.3851
4 4.07325 25.7973 -47.5213
4 5.431 21.724 -48.879
3 5.27446 27.0289 -25.6856
3 7.98644 24.3102 -25.6246
4 8.1465 24.4395 -48.879
4 6.78875 23.0817 -47.5213
3 6.55318 28.3671 -24.355
3 9.3852 25.6661 -24.372
4 9.50425 25.7973 -47.5213
4 10.862 21.724 -48.879
3 10.7725 27.0786 -25.6121
3 13.6095 24.3995 -25.6004
4 13.5775 24.4395 -48.879
4 12.2197 23.0817 -47.5213
3 12.0995 28.4577 -24.2453
3 14.9598 25.7988 -24.3
4 14.9352 25.7973 -47.5213
4 16.293 21.724 -48.879
3 16.2805 27.2123 -25.5257
1 19.101 24.4981 -25.5734
4 19.0085 24.4395 -48.879
4 17.6507 23.0817 -47.5213
1 17.732 28.5266 -24.207
1 20.4504 25.82 -24.2461
4 20.3663 25.7973 -47.5213
4 21.724 21.724 -48.879
1 21.7493 27.1382 -25.5599
1 24.4423 24.5499 -25.6049
4 24.4395 24.4395 -48.879
4 23.0817 23.0817 -47.5213
1 23.1655 28.4738 -24.2484
1 25.8958 25.7965 -24.1874
4 25.7973 25.7973 -47.5213
4 27.155 21.724 -48.879
1 27.1009 27.1497 -25.5655
1 29.9161 24.4659 -25.5655
4 29.8705 24.4395 -48.879
4 28.5128 23.0817 -47.5213
1 28.5701 28.4259 -24.3412
1 31.2093 25.8299 -24.2159
4 31.2282 25.7973 -47.5213
4 32.586 21.724 -48.879