15589
 Atoms. Timestep: 20000
4 0 0 -54.31
4 0 2.7155 -51.5945
4 2.7155 0 -51.5945
4 2.7155 2.7155 -54.31
4 1.35775 1.35775 -52.9522
4 1.35775 4.07325 -50.2368
4 4.07325 1.35775 -50.2368
4 4.07325 4.07325 -52.9522
4 5.431 0 -54.31
4 5.431 2.7155 -51.5945
4 8.1465 0 -51.5945
4 8.1465 2.7155 -54.31
4 6.78875 1.35775 -52.9522
4 6.78875 4.07325 -50.2368
4 9.50425 1.35775 -50.2368
4 9.50425 4.07325 -52.9522
4 10.862 0 -54.31
4 10.862 2.7155 -51.5945
4 13.5775 0 -51.5945
4 13.5775 2.7155 -54.31
4 12.2197 1.35775 -52.9522
4 12.2197 4.07325 -50.2368
4 14.9352 1.35775 -50.2368
4 14.9352 4.07325 -52.9522
4 16.293 0 -54.31
4 16.293 2.7155 -51.5945
4 19.0085 0 -51.5945
4 19.0085 2.7155 -54.31
4 17.6507 1.35775 -52.9522
4 17.6507 4.07325 -50.2368
4 20.3663 1.35775 -50.2368
4 20.3663 4.07325 -52.9522
4 21.724 0 -54.31
4 21.724 2.7155 -51.5945
4 24.4395 0 -51.5945
4 24.4395 2.7155 -54.31
4 23.0817 1.35775 -52.9522
4 23.0817 4.07325 -50.2368
4 25.7973 1.35775 -50.2368
4 25.7973 4.07325 -52.9522
4 27.155 0 -54.31
4 27.155 2.7155 -51.5945
4 29.8705 0 -51.5945
4 29.8705 2.7155 -54.31
4 28.5128 1.35775 -52.9522
4 28.5128 4.07325 -50.2368
4 31.2282 1.35775 -50.2368
4 31.2282 4.07325 -52.9522
4 32.586 0 -54.31
4 32.586 2.7155 -51.5945
4 35.3015 0 -51.5945
4 35.3015 2.7155 -54.31
4 33.9438 1.35775 -52.9522
4 33.9438 4.07325 -50.2368
4 36.6593 1.35775 -50.2368
4 36.6593 4.07325 -52.9522
4 38.017 0 -54.31
4 38.017 2.7155 -51.5945
4 40.7325 0 -51.5945
4 40.7325 2.7155 -54.31
4 39.3747 1.35775 -52.9522
4 39.3747 4.07325 -50.2368
4 42.0902 1.35775 -50.2368
4 42.0902 4.07325 -52.9522
4 43.448 0 -54.31
4 43.448 2.7155 -51.5945
4 46.1635 0 -51.5945
4 46.1635 2.7155 -54.31
4 44.8058 1.35775 -52.9522
4 44.8058 4.07325 -50.2368
4 47.5213 1.35775 -50.2368
4 47.5213 4.07325 -52.9522
4 48.879 0 -54.31
4 48.879 2.7155 -51.5945
4 51.5945 0 -51.5945
4 51.5945 2.7155 -54.31
4 50.2368 1.35775 -52.9522
4 50.2368 4.07325 -50.2368
4 52.9522 1.35775 -50.2368
4 52.9522 4.07325 -52.9522
4 0 5.431 -54.31
4 0 8.1465 -51.5945
4 2.7155 5.431 -51.5945
4 2.7155 8.1465 -54.31
4 1.35775 6.78875 -52.9522
4 1.35775 9.50425 -50.2368
4 4.07325 6.78875 -50.2368
4 4.07325 9.50425 -52.9522
4 5.431 5.431 -54.31
4 5.431 8.1465 -51.5945
4 8.1465 5.431 -51.5945
4 8.1465 8.1465 -54.31
4 6.78875 6.78875 -52.9522
4 6.78875 9.50425 -50.2368
4 9.50425 6.78875 -50.2368
4 9.50425 9.50425 -52.9522
4 10.862 5.431 -54.31
4 10.862 8.1465 -51.5945
4 13.5775 5.431 -51.5945
4 13.5775 8.1465 -54.31
4 12.2197 6.78875 -52.9522
4 12.2197 9.50425 -50.2368
4 14.9352 6.78875 -50.2368
4 14.9352 9.50425 -52.9522
4 16.293 5.431 -54.31
4 16.293 8.1465 -51.5945
4 19.0085 5.431 -51.5945
4 19.0085 8.1465 -54.31
4 17.6507 6.78875 -52.9522
4 17.6507 9.50425 -50.2368
4 20.3663 6.78875 -50.2368
4 20.3663 9.50425 -52.9522
4 21.724 5.431 -54.31
4 21.724 8.1465 -51.5945
4 24.4395 5.431 -51.5945
4 24.4395 8.1465 -54.31
4 23.0817 6.78875 -52.9522
4 23.0817 9.50425 -50.2368
4 25.7973 6.78875 -50.2368
4 25.7973 9.50425 -52.9522
4 27.155 5.431 -54.31
4 27.155 8.1465 -51.5945
4 29.8705 5.431 -51.5945
4 29.8705 8.1465 -54.31
4 28.5128 6.78875 -52.9522
4 28.5128 9.50425 -50.2368
4 31.2282 6.78875 -50.2368
4 31.2282 9.50425 -52.9522
4 32.586 5.431 -54.31
4 32.586 8.1465 -51.5945
4 35.3015 5.431 -51.5945
4 35.3015 8.1465 -54.31
4 33.9438 6.78875 -52.9522
4 33.9438 9.50425 -50.2368
4 36.6593 6.78875 -50.2368
4 36.6593 9.50425 -52.9522
4 38.017 5.431 -54.31
4 38.017 8.1465 -51.5945
4 40.7325 5.431 -51.5945
4 40.7325 8.1465 -54.31
4 39.3747 6.78875 -52.9522
4 39.3747 9.50425 -50.2368
4 42.0902 6.78875 -50.2368
4 42.0902 9.50425 -52.9522
4 43.448 5.431 -54.31
4 43.448 8.1465 -51.5945
4 46.1635 5.431 -51.5945
4 46.1635 8.1465 -54.31
4 44.8058 6.78875 -52.9522
4 44.8058 9.50425 -50.2368
4 47.5213 6.78875 -50.2368
4 47.5213 9.50425 -52.9522
4 48.879 5.431 -54.31
4 48.879 8.1465 -51.5945
4 51.5945 5.431 -51.5945
4 51.5945 8.1465 -54.31
4 50.2368 6.78875 -52.9522
4 50.2368 9.50425 -50.2368
4 52.9522 6.78875 -50.2368
4 52.9522 9.50425 -52.9522
4 0 10.862 -54.31
4 0 13.5775 -51.5945
4 2.7155 10.862 -51.5945
4 2.7155 13.5775 -54.31
4 1.35775 12.2197 -52.9522
4 1.35775 14.9352 -50.2368
4 4.07325 12.2197 -50.2368
4 4.07325 14.9352 -52.9522
4 5.431 10.862 -54.31
4 5.431 13.5775 -51.5945
4 8.1465 10.862 -51.5945
4 8.1465 13.5775 -54.31
4 6.78875 12.2197 -52.9522
4 6.78875 14.9352 -50.2368
4 9.50425 12.2197 -50.2368
4 9.50425 14.9352 -52.9522
4 10.862 10.862 -54.31
4 10.862 13.5775 -51.5945
4 13.5775 10.862 -51.5945
4 13.5775 13.5775 -54.31
4 12.2197 12.2197 -52.9522
4 12.2197 14.9352 -50.2368
4 14.9352 12.2197 -50.2368
4 14.9352 14.9352 -52.9522
4 16.293 10.862 -54.31
4 16.293 13.5775 -51.5945
4 19.0085 10.862 -51.5945
4 19.0085 13.5775 -54.31
4 17.6507 12.2197 -52.9522
4 17.6507 14.9352 -50.2368
4 20.3663 12.2197 -50.2368
4 20.3663 14.9352 -52.9522
4 21.724 10.862 -54.31
4 21.724 13.5775 -51.5945
4 24.4395 10.862 -51.5945
4 24.4395 13.5775 -54.31
4 23.0817 12.2197 -52.9522
4 23.0817 14.9352 -50.2368
4 25.7973 12.2197 -50.2368
4 25.7973 14.9352 -52.9522
4 27.155 10.862 -54.31
4 27.155 13.5775 -51.5945
4 29.8705 10.862 -51.5945
4 29.8705 13.5775 -54.31
4 28.5128 12.2197 -52.9522
4 28.5128 14.9352 -50.2368
4 31.2282 12.2197 -50.2368
4 31.2282 14.9352 -52.9522
4 32.586 10.862 -54.31
4 32.586 13.5775 -51.5945
4 35.3015 10.862 -51.5945
4 35.3015 13.5775 -54.31
4 33.9438 12.2197 -52.9522
4 33.9438 14.9352 -50.2368
4 36.6593 12.2197 -50.2368
4 36.6593 14.9352 -52.9522
4 38.017 10.862 -54.31
4 38.017 13.5775 -51.5945
4 40.7325 10.862 -51.5945
4 40.7325 13.5775 -54.31
4 39.3747 12.2197 -52.9522
4 39.3747 14.9352 -50.2368
4 42.0902 12.2197 -50.2368
4 42.0902 14.9352 -52.9522
4 43.448 10.862 -54.31
4 43.448 13.5775 -51.5945
4 46.1635 10.862 -51.5945
4 46.1635 13.5775 -54.31
4 44.8058 12.2197 -52.9522
4 44.8058 14.9352 -50.2368
4 47.5213 12.2197 -50.2368
4 47.5213 14.9352 -52.9522
4 48.879 10.862 -54.31
4 48.879 13.5775 -51.5945
4 51.5945 10.862 -51.5945
4 51.5945 13.5775 -54.31
4 50.2368 12.2197 -52.9522
4 50.2368 14.9352 -50.2368
4 52.9522 12.2197 -50.2368
4 52.9522 14.9352 -52.9522
4 0 16.293 -54.31
4 0 19.0085 -51.5945
4 2.7155 16.293 -51.5945
4 2.7155 19.0085 -54.31
4 1.35775 17.6507 -52.9522
4 1.35775 20.3663 -50.2368
4 4.07325 17.6507 -50.2368
4 4.07325 20.3663 -52.9522
4 5.431 16.293 -54.31
4 5.431 19.0085 -51.5945
4 8.1465 16.293 -51.5945
4 8.1465 19.0085 -54.31
4 6.78875 17.6507 -52.9522
4 6.78875 20.3663 -50.2368
4 9.50425 17.6507 -50.2368
4 9.50425 20.3663 -52.9522
4 10.862 16.293 -54.31
4 10.862 19.0085 -51.5945
4 13.5775 16.293 -51.5945
4 13.5775 19.0085 -54.31
4 12.2197 17.6507 -52.9522
4 12.2197 20.3663 -50.2368
4 14.9352 17.6507 -50.2368
4 14.9352 20.3663 -52.9522
4 16.293 16.293 -54.31
4 16.293 19.0085 -51.5945
4 19.0085 16.293 -51.5945
4 19.0085 19.0085 -54.31
4 17.6507 17.6507 -52.9522
4 17.6507 20.3663 -50.2368
4 20.3663 17.6507 -50.2368
4 20.3663 20.3663 -52.9522
4 21.724 16.293 -54.31
4 21.724 19.0085 -51.5945
4 24.4395 16.293 -51.5945
4 24.4395 19.0085 -54.31
4 23.0817 17.6507 -52.9522
4 23.0817 20.3663 -50.2368
4 25.7973 17.6507 -50.2368
4 25.7973 20.3663 -52.9522
4 27.155 16.293 -54.31
4 27.155 19.0085 -51.5945
4 29.8705 16.293 -51.5945
4 29.8705 19.0085 -54.31
4 28.5128 17.6507 -52.9522
4 28.5128 20.3663 -50.2368
4 31.2282 17.6507 -50.2368
4 31.2282 20.3663 -52.9522
4 32.586 16.293 -54.31
4 32.586 19.0085 -51.5945
4 35.3015 16.293 -51.5945
4 35.3015 19.0085 -54.31
4 33.9438 17.6507 -52.9522
4 33.9438 20.3663 -50.2368
4 36.6593 17.6507 -50.2368
4 36.6593 20.3663 -52.9522
4 38.017 16.293 -54.31
4 38.017 19.0085 -51.5945
4 40.7325 16.293 -51.5945
4 40.7325 19.0085 -54.31
4 39.3747 17.6507 -52.9522
4 39.3747 20.3663 -50.2368
4 42.0902 17.6507 -50.2368
4 42.0902 20.3663 -52.9522
4 43.448 16.293 -54.31
4 43.448 19.0085 -51.5945
4 46.1635 16.293 -51.5945
4 46.1635 19.0085 -54.31
4 44.8058 17.6507 -52.9522
4 44.8058 20.3663 -50.2368
4 47.5213 17.6507 -50.2368
4 47.5213 20.3663 -52.9522
4 48.879 16.293 -54.31
4 48.879 19.0085 -51.5945
4 51.5945 16.293 -51.5945
4 51.5945 19.0085 -54.31
4 50.2368 17.6507 -52.9522
4 50.2368 20.3663 -50.2368
4 52.9522 17.6507 -50.2368
4 52.9522 20.3663 -52.9522
4 0 21.724 -54.31
4 0 24.4395 -51.5945
4 2.7155 21.724 -51.5945
4 2.7155 24.4395 -54.31
4 1.35775 23.0817 -52.9522
4 1.35775 25.7973 -50.2368
4 4.07325 23.0817 -50.2368
4 4.07325 25.7973 -52.9522
4 5.431 21.724 -54.31
4 5.431 24.4395 -51.5945
4 8.1465 21.724 -51.5945
4 8.1465 24.4395 -54.31
4 6.78875 23.0817 -52.9522
4 6.78875 25.7973 -50.2368
4 9.50425 23.0817 -50.2368
4 9.50425 25.7973 -52.9522
4 10.862 21.724 -54.31
4 10.862 24.4395 -51.5945
4 13.5775 21.724 -51.5945
4 13.5775 24.4395 -54.31
4 12.2197 23.0817 -52.9522
4 12.2197 25.7973 -50.2368
4 14.9352 23.0817 -50.2368
4 14.9352 25.7973 -52.9522
4 16.293 21.724 -54.31
4 16.293 24.4395 -51.5945
4 19.0085 21.724 -51.5945
4 19.0085 24.4395 -54.31
4 17.6507 23.0817 -52.9522
4 17.6507 25.7973 -50.2368
4 20.3663 23.0817 -50.2368
4 20.3663 25.7973 -52.9522
4 21.724 21.724 -54.31
4 21.724 24.4395 -51.5945
4 24.4395 21.724 -51.5945
4 24.4395 24.4395 -54.31
4 23.0817 23.0817 -52.9522
4 23.0817 25.7973 -50.2368
4 25.7973 23.0817 -50.2368
4 25.7973 25.7973 -52.9522
4 27.155 21.724 -54.31
4 27.155 24.4395 -51.5945
4 29.8705 21.724 -51.5945
4 29.8705 24.4395 -54.31
4 28.5128 23.0817 -52.9522
4 28.5128 25.7973 -50.2368
4 31.2282 23.0817 -50.2368
4 31.2282 25.7973 -52.9522
4 32.586 21.724 -54.31
4 32.586 24.4395 -51.5945
4 35.3015 21.724 -51.5945
4 35.3015 24.4395 -54.31
4 33.9438 23.0817 -52.9522
4 33.9438 25.7973 -50.2368
4 36.6593 23.0817 -50.2368
4 36.6593 25.7973 -52.9522
4 38.017 21.724 -54.31
4 38.017 24.4395 -51.5945
4 40.7325 21.724 -51.5945
4 40.7325 24.4395 -54.31
4 39.3747 23.0817 -52.9522
4 39.3747 25.7973 -50.2368
4 42.0902 23.0817 -50.2368
4 42.0902 25.7973 -52.9522
4 43.448 21.724 -54.31
4 43.448 24.4395 -51.5945
4 46.1635 21.724 -51.5945
4 46.1635 24.4395 -54.31
4 44.8058 23.0817 -52.9522
4 44.8058 25.7973 -50.2368
4 47.5213 23.0817 -50.2368
4 47.5213 25.7973 -52.9522
4 48.879 21.724 -54.31
4 48.879 24.4395 -51.5945
4 51.5945 21.724 -51.5945
4 51.5945 24.4395 -54.31
4 50.2368 23.0817 -52.9522
4 50.2368 25.7973 -50.2368
4 52.9522 23.0817 -50.2368
4 52.9522 25.7973 -52.9522
4 0 27.155 -54.31
4 0 29.8705 -51.5945
4 2.7155 27.155 -51.5945
4 2.7155 29.8705 -54.31
4 1.35775 28.5128 -52.9522
4 1.35775 31.2282 -50.2368
4 4.07325 28.5128 -50.2368
4 4.07325 31.2282 -52.9522
4 5.431 27.155 -54.31
4 5.431 29.8705 -51.5945
4 8.1465 27.155 -51.5945
4 8.1465 29.8705 -54.31
4 6.78875 28.5128 -52.9522
4 6.78875 31.2282 -50.2368
4 9.50425 28.5128 -50.2368
4 9.50425 31.2282 -52.9522
4 10.862 27.155 -54.31
4 10.862 29.8705 -51.5945
4 13.5775 27.155 -51.5945
4 13.5775 29.8705 -54.31
4 12.2197 28.5128 -52.9522
4 12.2197 31.2282 -50.2368
4 14.9352 28.5128 -50.2368
4 14.9352 31.2282 -52.9522
4 16.293 27.155 -54.31
4 16.293 29.8705 -51.5945
4 19.0085 27.155 -51.5945
4 19.0085 29.8705 -54.31
4 17.6507 28.5128 -52.9522
4 17.6507 31.2282 -50.2368
4 20.3663 28.5128 -50.2368
4 20.3663 31.2282 -52.9522
4 21.724 27.155 -54.31
4 21.724 29.8705 -51.5945
4 24.4395 27.155 -51.5945
4 24.4395 29.8705 -54.31
4 23.0817 28.5128 -52.9522
4 23.0817 31.2282 -50.2368
4 25.7973 28.5128 -50.2368
4 25.7973 31.2282 -52.9522
4 27.155 27.155 -54.31
4 27.155 29.8705 -51.5945
4 29.8705 27.155 -51.5945
4 29.8705 29.8705 -54.31
4 28.5128 28.5128 -52.9522
4 28.5128 31.2282 -50.2368
4 31.2282 28.5128 -50.2368
4 31.2282 31.2282 -52.9522
4 32.586 27.155 -54.31
4 32.586 29.8705 -51.5945
4 35.3015 27.155 -51.5945
4 35.3015 29.8705 -54.31
4 33.9438 28.5128 -52.9522
4 33.9438 31.2282 -50.2368
4 36.6593 28.5128 -50.2368
4 36.6593 31.2282 -52.9522
4 38.017 27.155 -54.31
4 38.017 29.8705 -51.5945
4 40.7325 27.155 -51.5945
4 40.7325 29.8705 -54.31
4 39.3747 28.5128 -52.9522
4 39.3747 31.2282 -50.2368
4 42.0902 28.5128 -50.2368
4 42.0902 31.2282 -52.9522
4 43.448 27.155 -54.31
4 43.448 29.8705 -51.5945
4 46.1635 27.155 -51.5945
4 46.1635 29.8705 -54.31
4 44.8058 28.5128 -52.9522
4 44.8058 31.2282 -50.2368
4 47.5213 28.5128 -50.2368
4 47.5213 31.2282 -52.9522
4 48.879 27.155 -54.31
4 48.879 29.8705 -51.5945
4 51.5945 27.155 -51.5945
4 51.5945 29.8705 -54.31
4 50.2368 28.5128 -52.9522
4 50.2368 31.2282 -50.2368
4 52.9522 28.5128 -50.2368
4 52.9522 31.2282 -52.9522
4 0 32.586 -54.31
4 0 35.3015 -51.5945
4 2.7155 32.586 -51.5945
4 2.7155 35.3015 -54.31
4 1.35775 33.9438 -52.9522
4 1.35775 36.6593 -50.2368
4 4.07325 33.9438 -50.2368
4 4.07325 36.6593 -52.9522
4 5.431 32.586 -54.31
4 5.431 35.3015 -51.5945
4 8.1465 32.586 -51.5945
4 8.1465 35.3015 -54.31
4 6.78875 33.9438 -52.9522
4 6.78875 36.6593 -50.2368
4 9.50425 33.9438 -50.2368
4 9.50425 36.6593 -52.9522
4 10.862 32.586 -54.31
4 10.862 35.3015 -51.5945
4 13.5775 32.586 -51.5945
4 13.5775 35.3015 -54.31
4 12.2197 33.9438 -52.9522
4 12.2197 36.6593 -50.2368
4 14.9352 33.9438 -50.2368
4 14.9352 36.6593 -52.9522
4 16.293 32.586 -54.31
4 16.293 35.3015 -51.5945
4 19.0085 32.586 -51.5945
4 19.0085 35.3015 -54.31
4 17.6507 33.9438 -52.9522
4 17.6507 36.6593 -50.2368
4 20.3663 33.9438 -50.2368
4 20.3663 36.6593 -52.9522
4 21.724 32.586 -54.31
4 21.724 35.3015 -51.5945
4 24.4395 32.586 -51.5945
4 24.4395 35.3015 -54.31
4 23.0817 33.9438 -52.9522
4 23.0817 36.6593 -50.2368
4 25.7973 33.9438 -50.2368
4 25.7973 36.6593 -52.9522
4 27.155 32.586 -54.31
4 27.155 35.3015 -51.5945
4 29.8705 32.586 -51.5945
4 29.8705 35.3015 -54.31
4 28.5128 33.9438 -52.9522
4 28.5128 36.6593 -50.2368
4 31.2282 33.9438 -50.2368
4 31.2282 36.6593 -52.9522
4 32.586 32.586 -54.31
4 32.586 35.3015 -51.5945
4 35.3015 32.586 -51.5945
4 35.3015 35.3015 -54.31
4 33.9438 33.9438 -52.9522
4 33.9438 36.6593 -50.2368
4 36.6593 33.9438 -50.2368
4 36.6593 36.6593 -52.9522
4 38.017 32.586 -54.31
4 38.017 35.3015 -51.5945
4 40.7325 32.586 -51.5945
4 40.7325 35.3015 -54.31
4 39.3747 33.9438 -52.9522
4 39.3747 36.6593 -50.2368
4 42.0902 33.9438 -50.2368
4 42.0902 36.6593 -52.9522
4 43.448 32.586 -54.31
4 43.448 35.3015 -51.5945
4 46.1635 32.586 -51.5945
4 46.1635 35.3015 -54.31
4 44.8058 33.9438 -52.9522
4 44.8058 36.6593 -50.2368
4 47.5213 33.9438 -50.2368
4 47.5213 36.6593 -52.9522
4 48.879 32.586 -54.31
4 48.879 35.3015 -51.5945
4 51.5945 32.586 -51.5945
4 51.5945 35.3015 -54.31
4 50.2368 33.9438 -52.9522
4 50.2368 36.6593 -50.2368
4 52.9522 33.9438 -50.2368
4 52.9522 36.6593 -52.9522
4 0 38.017 -54.31
4 0 40.7325 -51.5945
4 2.7155 38.017 -51.5945
4 2.7155 40.7325 -54.31
4 1.35775 39.3747 -52.9522
4 1.35775 42.0902 -50.2368
4 4.07325 39.3747 -50.2368
4 4.07325 42.0902 -52.9522
4 5.431 38.017 -54.31
4 5.431 40.7325 -51.5945
4 8.1465 38.017 -51.5945
4 8.1465 40.7325 -54.31
4 6.78875 39.3747 -52.9522
4 6.78875 42.0902 -50.2368
4 9.50425 39.3747 -50.2368
4 9.50425 42.0902 -52.9522
4 10.862 38.017 -54.31
4 10.862 40.7325 -51.5945
4 13.5775 38.017 -51.5945
4 13.5775 40.7325 -54.31
4 12.2197 39.3747 -52.9522
4 12.2197 42.0902 -50.2368
4 14.9352 39.3747 -50.2368
4 14.9352 42.0902 -52.9522
4 16.293 38.017 -54.31
4 16.293 40.7325 -51.5945
4 19.0085 38.017 -51.5945
4 19.0085 40.7325 -54.31
4 17.6507 39.3747 -52.9522
4 17.6507 42.0902 -50.2368
4 20.3663 39.3747 -50.2368
4 20.3663 42.0902 -52.9522
4 21.724 38.017 -54.31
4 21.724 40.7325 -51.5945
4 24.4395 38.017 -51.5945
4 24.4395 40.7325 -54.31
4 23.0817 39.3747 -52.9522
4 23.0817 42.0902 -50.2368
4 25.7973 39.3747 -50.2368
4 25.7973 42.0902 -52.9522
4 27.155 38.017 -54.31
4 27.155 40.7325 -51.5945
4 29.8705 38.017 -51.5945
4 29.8705 40.7325 -54.31
4 28.5128 39.3747 -52.9522
4 28.5128 42.0902 -50.2368
4 31.2282 39.3747 -50.2368
4 31.2282 42.0902 -52.9522
4 32.586 38.017 -54.31
4 32.586 40.7325 -51.5945
4 35.3015 38.017 -51.5945
4 35.3015 40.7325 -54.31
4 33.9438 39.3747 -52.9522
4 33.9438 42.0902 -50.2368
4 36.6593 39.3747 -50.2368
4 36.6593 42.0902 -52.9522
4 38.017 38.017 -54.31
4 38.017 40.7325 -51.5945
4 40.7325 38.017 -51.5945
4 40.7325 40.7325 -54.31
4 39.3747 39.3747 -52.9522
4 39.3747 42.0902 -50.2368
4 42.0902 39.3747 -50.2368
4 42.0902 42.0902 -52.9522
4 43.448 38.017 -54.31
4 43.448 40.7325 -51.5945
4 46.1635 38.017 -51.5945
4 46.1635 40.7325 -54.31
4 44.8058 39.3747 -52.9522
4 44.8058 42.0902 -50.2368
4 47.5213 39.3747 -50.2368
4 47.5213 42.0902 -52.9522
4 48.879 38.017 -54.31
4 48.879 40.7325 -51.5945
4 51.5945 38.017 -51.5945
4 51.5945 40.7325 -54.31
4 50.2368 39.3747 -52.9522
4 50.2368 42.0902 -50.2368
4 52.9522 39.3747 -50.2368
4 52.9522 42.0902 -52.9522
4 0 43.448 -54.31
4 0 46.1635 -51.5945
4 2.7155 43.448 -51.5945
4 2.7155 46.1635 -54.31
4 1.35775 44.8058 -52.9522
4 1.35775 47.5213 -50.2368
4 4.07325 44.8058 -50.2368
4 4.07325 47.5213 -52.9522
4 5.431 43.448 -54.31
4 5.431 46.1635 -51.5945
4 8.1465 43.448 -51.5945
4 8.1465 46.1635 -54.31
4 6.78875 44.8058 -52.9522
4 6.78875 47.5213 -50.2368
4 9.50425 44.8058 -50.2368
4 9.50425 47.5213 -52.9522
4 10.862 43.448 -54.31
4 10.862 46.1635 -51.5945
4 13.5775 43.448 -51.5945
4 13.5775 46.1635 -54.31
4 12.2197 44.8058 -52.9522
4 12.2197 47.5213 -50.2368
4 14.9352 44.8058 -50.2368
4 14.9352 47.5213 -52.9522
4 16.293 43.448 -54.31
4 16.293 46.1635 -51.5945
4 19.0085 43.448 -51.5945
4 19.0085 46.1635 -54.31
4 17.6507 44.8058 -52.9522
4 17.6507 47.5213 -50.2368
4 20.3663 44.8058 -50.2368
4 20.3663 47.5213 -52.9522
4 21.724 43.448 -54.31
4 21.724 46.1635 -51.5945
4 24.4395 43.448 -51.5945
4 24.4395 46.1635 -54.31
4 23.0817 44.8058 -52.9522
4 23.0817 47.5213 -50.2368
4 25.7973 44.8058 -50.2368
4 25.7973 47.5213 -52.9522
4 27.155 43.448 -54.31
4 27.155 46.1635 -51.5945
4 29.8705 43.448 -51.5945
4 29.8705 46.1635 -54.31
4 28.5128 44.8058 -52.9522
4 28.5128 47.5213 -50.2368
4 31.2282 44.8058 -50.2368
4 31.2282 47.5213 -52.9522
4 32.586 43.448 -54.31
4 32.586 46.1635 -51.5945
4 35.3015 43.448 -51.5945
4 35.3015 46.1635 -54.31
4 33.9438 44.8058 -52.9522
4 33.9438 47.5213 -50.2368
4 36.6593 44.8058 -50.2368
4 36.6593 47.5213 -52.9522
4 38.017 43.448 -54.31
4 38.017 46.1635 -51.5945
4 40.7325 43.448 -51.5945
4 40.7325 46.1635 -54.31
4 39.3747 44.8058 -52.9522
4 39.3747 47.5213 -50.2368
4 42.0902 44.8058 -50.2368
4 42.0902 47.5213 -52.9522
4 43.448 43.448 -54.31
4 43.448 46.1635 -51.5945
4 46.1635 43.448 -51.5945
4 46.1635 46.1635 -54.31
4 44.8058 44.8058 -52.9522
4 44.8058 47.5213 -50.2368
4 47.5213 44.8058 -50.2368
4 47.5213 47.5213 -52.9522
4 48.879 43.448 -54.31
4 48.879 46.1635 -51.5945
4 51.5945 43.448 -51.5945
4 51.5945 46.1635 -54.31
4 50.2368 44.8058 -52.9522
4 50.2368 47.5213 -50.2368
4 52.9522 44.8058 -50.2368
4 52.9522 47.5213 -52.9522
4 0 48.879 -54.31
4 0 51.5945 -51.5945
4 2.7155 48.879 -51.5945
4 2.7155 51.5945 -54.31
4 1.35775 50.2368 -52.9522
4 1.35775 52.9522 -50.2368
4 4.07325 50.2368 -50.2368
4 4.07325 52.9522 -52.9522
4 5.431 48.879 -54.31
4 5.431 51.5945 -51.5945
4 8.1465 48.879 -51.5945
4 8.1465 51.5945 -54.31
4 6.78875 50.2368 -52.9522
4 6.78875 52.9522 -50.2368
4 9.50425 50.2368 -50.2368
4 9.50425 52.9522 -52.9522
4 10.862 48.879 -54.31
4 10.862 51.5945 -51.5945
4 13.5775 48.879 -51.5945
4 13.5775 51.5945 -54.31
4 12.2197 50.2368 -52.9522
4 12.2197 52.9522 -50.2368
4 14.9352 50.2368 -50.2368
4 14.9352 52.9522 -52.9522
4 16.293 48.879 -54.31
4 16.293 51.5945 -51.5945
4 19.0085 48.879 -51.5945
4 19.0085 51.5945 -54.31
4 17.6507 50.2368 -52.9522
4 17.6507 52.9522 -50.2368
4 20.3663 50.2368 -50.2368
4 20.3663 52.9522 -52.9522
4 21.724 48.879 -54.31
4 21.724 51.5945 -51.5945
4 24.4395 48.879 -51.5945
4 24.4395 51.5945 -54.31
4 23.0817 50.2368 -52.9522
4 23.0817 52.9522 -50.2368
4 25.7973 50.2368 -50.2368
4 25.7973 52.9522 -52.9522
4 27.155 48.879 -54.31
4 27.155 51.5945 -51.5945
4 29.8705 48.879 -51.5945
4 29.8705 51.5945 -54.31
4 28.5128 50.2368 -52.9522
4 28.5128 52.9522 -50.2368
4 31.2282 50.2368 -50.2368
4 31.2282 52.9522 -52.9522
4 32.586 48.879 -54.31
4 32.586 51.5945 -51.5945
4 35.3015 48.879 -51.5945
4 35.3015 51.5945 -54.31
4 33.9438 50.2368 -52.9522
4 33.9438 52.9522 -50.2368
4 36.6593 50.2368 -50.2368
4 36.6593 52.9522 -52.9522
4 38.017 48.879 -54.31
4 38.017 51.5945 -51.5945
4 40.7325 48.879 -51.5945
4 40.7325 51.5945 -54.31
4 39.3747 50.2368 -52.9522
4 39.3747 52.9522 -50.2368
4 42.0902 50.2368 -50.2368
4 42.0902 52.9522 -52.9522
4 43.448 48.879 -54.31
4 43.448 51.5945 -51.5945
4 46.1635 48.879 -51.5945
4 46.1635 51.5945 -54.31
4 44.8058 50.2368 -52.9522
4 44.8058 52.9522 -50.2368
4 47.5213 50.2368 -50.2368
4 47.5213 52.9522 -52.9522
4 48.879 48.879 -54.31
4 48.879 51.5945 -51.5945
4 51.5945 48.879 -51.5945
4 51.5945 51.5945 -54.31
4 50.2368 50.2368 -52.9522
4 50.2368 52.9522 -50.2368
4 52.9522 50.2368 -50.2368
4 52.9522 52.9522 -52.9522
4 0 0 -48.879
3 2.66 54.284 -46.0768
4 2.7155 2.7155 -48.879
4 1.35775 1.35775 -47.5213
3 1.47679 4.22649 -44.5116
3 4.05778 1.39185 -44.7017
4 4.07325 4.07325 -47.5213
4 5.431 0 -48.879
3 5.45029 2.79663 -46.0278
3 8.08838 -0.0149735 -46.177
4 8.1465 2.7155 -48.879
4 6.78875 1.35775 -47.5213
3 6.78353 4.16224 -44.6711
3 9.35843 1.4095 -44.7176
4 9.50425 4.07325 -47.5213
4 10.862 0 -48.879
3 10.8308 2.62267 -46.1383
3 13.5868 54.3211 -46.1545
4 13.5775 2.7155 -48.879
4 12.2197 1.35775 -47.5213
3 12.2645 3.97724 -44.785
3 14.9906 1.35513 -44.6777
4 14.9352 4.07325 -47.5213
4 16.293 0 -48.879
3 16.3466 2.78732 -45.9587
1 19.0722 0.0785128 -46.0297
4 19.0085 2.7155 -48.879
4 17.6507 1.35775 -47.5213
1 17.6829 4.14999 -44.6461
1 20.4066 1.41668 -44.6588
4 20.3663 4.07325 -47.5213
4 21.724 0 -48.879
1 21.7575 2.73696 -46.1186
1 24.4805 54.2586 -46.1425
4 24.4395 2.7155 -48.879
4 23.0817 1.35775 -47.5213
1 23.1923 4.05341 -44.7088
1 25.8898 1.32009 -44.6984
4 25.7973 4.07325 -47.5213
4 27.155 0 -48.879
1 27.1804 2.72645 -46.1168
1 29.8096 54.269 -46.0423
4 29.8705 2.7155 -48.879
4 28.5128 1.35775 -47.5213
1 28.5672 4.09535 -44.6916
1 31.0914 1.30402 -44.6216
4 31.2282 4.07325 -47.5213
4 32.586 0 -48.879
1 32.5878 2.62007 -46.0891
1 35.2356 54.2661 -46.1186
4 35.3015 2.7155 -48.879
4 33.9438 1.35775 -47.5213
1 33.9119 4.09521 -44.7415
1 36.5382 1.31519 -44.5796
4 36.6593 4.07325 -47.5213
4 38.017 0 -48.879
1 37.9749 2.60905 -46.0743
1 40.754 -0.00301678 -46.1487
4 40.7325 2.7155 -48.879
4 39.3747 1.35775 -47.5213
1 39.3213 3.89746 -44.7026
1 42.0681 1.32468 -44.7538
4 42.0902 4.07325 -47.5213
4 43.448 0 -48.879
1 43.4681 2.69153 -46.1521
1 46.1614 54.2948 -46.0762
4 46.1635 2.7155 -48.879
4 44.8058 1.35775 -47.5213
1 44.6823 3.99219 -44.6488
1 47.5452 1.27196 -44.717
4 47.5213 4.07325 -47.5213
4 48.879 0 -48.879
1 48.7893 2.62646 -46.122
1 51.5815 -0.00726953 -46.002
4 51.5945 2.7155 -48.879
4 50.2368 1.35775 -47.5213
1 50.1801 4.06873 -44.771
1 52.9512 1.36599 -44.548
4 52.9522 4.07325 -47.5213
4 0 5.431 -48.879
3 2.72143 5.44173 -46.0476
4 2.7155 8.1465 -48.879
4 1.35775 6.78875 -47.5213
3 1.30831 9.38533 -44.6865
3 4.13453 6.74369 -44.7236
4 4.07325 9.50425 -47.5213
4 5.431 5.431 -48.879
3 5.54013 8.13982 -46.0936
3 8.21777 5.50884 -46.0597
4 8.1465 8.1465 -48.879
4 6.78875 6.78875 -47.5213
3 6.83863 9.55781 -44.7393
3 9.60461 6.79371 -44.6114
4 9.50425 9.50425 -47.5213
4 10.862 5.431 -48.879
3 10.8993 8.14494 -46.0927
3 13.515 5.35359 -46.1365
4 13.5775 8.1465 -48.879
4 12.2197 6.78875 -47.5213
3 12.177 9.55298 -44.6691
3 14.8953 6.68514 -44.6964
4 14.9352 9.50425 -47.5213
4 16.293 5.431 -48.879
3 16.2035 8.131 -46.0342
1 19.002 5.41486 -46.1222
4 19.0085 8.1465 -48.879
4 17.6507 6.78875 -47.5213
1 17.7521 9.34285 -44.7629
1 20.4431 6.65797 -44.6917
4 20.3663 9.50425 -47.5213
4 21.724 5.431 -48.879
1 21.6863 8.12851 -46.0418
1 24.498 5.51566 -46.1406
4 24.4395 8.1465 -48.879
4 23.0817 6.78875 -47.5213
1 23.0303 9.44396 -44.6023
1 25.7943 6.82831 -44.6941
4 25.7973 9.50425 -47.5213
4 27.155 5.431 -48.879
1 27.0515 8.11869 -46.1038
1 29.9322 5.49555 -46.1216
4 29.8705 8.1465 -48.879
4 28.5128 6.78875 -47.5213
1 28.4719 9.3619 -44.652
1 31.2272 6.8948 -44.6609
4 31.2282 9.50425 -47.5213
4 32.586 5.431 -48.879
1 32.6414 8.19294 -46.0691
1 35.2753 5.45624 -46.1647
4 35.3015 8.1465 -48.879
4 33.9438 6.78875 -47.5213
1 33.934 9.54264 -44.6657
1 36.6591 6.81683 -44.6258
4 36.6593 9.50425 -47.5213
4 38.017 5.431 -48.879
1 37.9927 8.17842 -46.1269
1 40.6256 5.35058 -46.0336
4 40.7325 8.1465 -48.879
4 39.3747 6.78875 -47.5213
1 39.3368 9.49017 -44.6836
1 41.9621 6.69929 -44.6799
4 42.0902 9.50425 -47.5213
4 43.448 5.431 -48.879
1 43.3541 8.0967 -46.1152
1 46.0151 5.37083 -46.05
4 46.1635 8.1465 -48.879
4 44.8058 6.78875 -47.5213
1 44.7554 9.53555 -44.6375
1 47.3537 6.84252 -44.583
4 47.5213 9.50425 -47.5213
4 48.879 5.431 -48.879
1 48.8298 8.08933 -46.0771
1 51.6121 5.399 -46.1848
4 51.5945 8.1465 -48.879
4 50.2368 6.78875 -47.5213
1 50.1906 9.57178 -44.7018
1 52.9913 6.76092 -44.798
4 52.9522 9.50425 -47.5213
4 0 10.862 -48.879
3 2.63194 10.7906 -46.1153
4 2.7155 13.5775 -48.879
4 1.35775 12.2197 -47.5213
3 1.30071 14.6923 -44.6832
3 4.0433 12.1545 -44.7663
4 4.07325 14.9352 -47.5213
4 5.431 10.862 -48.879
3 5.39101 13.5634 -46.0917
3 8.1239 10.8417 -46.1686
4 8.1465 13.5775 -48.879
4 6.78875 12.2197 -47.5213
3 6.76376 14.9178 -44.6834
3 9.40711 12.2187 -44.6831
4 9.50425 14.9352 -47.5213
4 10.862 10.862 -48.879
3 10.7259 13.4901 -46.0696
3 13.5552 10.8724 -46.1353
4 13.5775 13.5775 -48.879
4 12.2197 12.2197 -47.5213
3 12.1608 14.8051 -44.6612
3 14.9439 12.1935 -44.6728
4 14.9352 14.9352 -47.5213
4 16.293 10.862 -48.879
3 16.2366 13.4983 -46.082
1 19.0357 10.859 -46.0854
4 19.0085 13.5775 -48.879
4 17.6507 12.2197 -47.5213
1 17.6637 14.8048 -44.6506
1 20.3906 12.2609 -44.6843
4 20.3663 14.9352 -47.5213
4 21.724 10.862 -48.879
1 21.7896 13.672 -46.0577
1 24.3634 10.7508 -46.1145
4 24.4395 13.5775 -48.879
4 23.0817 12.2197 -47.5213
1 23.1123 14.9859 -44.7198
1 25.7906 12.2479 -44.7102
4 25.7973 14.9352 -47.5213
4 27.155 10.862 -48.879
1 27.1516 13.5492 -46.2027
1 29.885 10.7633 -46.1144
4 29.8705 13.5775 -48.879
4 28.5128 12.2197 -47.5213
1 28.4573 14.9178 -44.758
1 31.18 12.2831 -44.8182
4 31.2282 14.9352 -47.5213
4 32.586 10.862 -48.879
1 32.5896 13.6372 -46.1991
1 35.3441 10.893 -46.1009
4 35.3015 13.5775 -48.879
4 33.9438 12.2197 -47.5213
1 33.905 14.9776 -44.6733
1 36.6931 12.2387 -44.6618
4 36.6593 14.9352 -47.5213
4 38.017 10.862 -48.879
1 37.9617 13.5103 -46.1069
1 40.6843 10.8153 -46.1336
4 40.7325 13.5775 -48.879
4 39.3747 12.2197 -47.5213
1 39.3444 14.9034 -44.7181
1 41.9936 12.1919 -44.7462
4 42.0902 14.9352 -47.5213
4 43.448 10.862 -48.879
1 43.4764 13.6043 -45.9856
1 46.1196 10.8732 -46.0433
4 46.1635 13.5775 -48.879
4 44.8058 12.2197 -47.5213
1 44.7938 15.0373 -44.5855
1 47.4332 12.2475 -44.5303
4 47.5213 14.9352 -47.5213
4 48.879 10.862 -48.879
1 48.8059 13.4973 -46.1113
1 51.5317 10.953 -46.0849
4 51.5945 13.5775 -48.879
4 50.2368 12.2197 -47.5213
1 50.0894 14.9646 -44.687
1 52.9233 12.2986 -44.7449
4 52.9522 14.9352 -47.5213
4 0 16.293 -48.879
3 2.60116 16.1274 -46.0355
4 2.7155 19.0085 -48.879
4 1.35775 17.6507 -47.5213
3 1.52826 20.3873 -44.7754
3 3.96905 17.6373 -44.6097
4 4.07325 20.3663 -47.5213
4 5.431 16.293 -48.879
3 5.44216 18.9638 -46.1108
3 8.11163 16.3378 -46.0788
4 8.1465 19.0085 -48.879
4 6.78875 17.6507 -47.5213
3 6.81279 20.3801 -44.7126
3 9.57422 17.5682 -44.7092
4 9.50425 20.3663 -47.5213
4 10.862 16.293 -48.879
3 10.8407 19.0156 -46.0539
3 13.4757 16.1321 -46.0591
4 13.5775 19.0085 -48.879
4 12.2197 17.6507 -47.5213
3 12.1242 20.4228 -44.6127
3 14.8753 17.4281 -44.5759
4 14.9352 20.3663 -47.5213
4 16.293 16.293 -48.879
3 16.1752 18.8738 -46.05
1 18.9514 16.2846 -46.1103
4 19.0085 19.0085 -48.879
4 17.6507 17.6507 -47.5213
1 17.6377 20.3022 -44.713
1 20.3376 17.5772 -44.6108
4 20.3663 20.3663 -47.5213
4 21.724 16.293 -48.879
1 21.6737 18.9292 -46.142
1 24.469 16.2863 -46.1242
4 24.4395 19.0085 -48.879
4 23.0817 17.6507 -47.5213
1 23.004 20.2775 -44.7189
1 25.7617 17.7537 -44.7875
4 25.7973 20.3663 -47.5213
4 27.155 16.293 -48.879
1 27.1625 19.1005 -46.0626
1 29.8622 16.2254 -46.0333
4 29.8705 19.0085 -48.879
4 28.5128 17.6507 -47.5213
1 28.5569 20.4015 -44.6697
1 31.1754 17.6331 -44.6963
4 31.2282 20.3663 -47.5213
4 32.586 16.293 -48.879
1 32.6181 19.0197 -46.0283
1 35.3439 16.4086 -46.0255
4 35.3015 19.0085 -48.879
4 33.9438 17.6507 -47.5213
1 34.071 20.4127 -44.619
1 36.7 17.6983 -44.6242
4 36.6593 20.3663 -47.5213
4 38.017 16.293 -48.879
1 38.0303 19.0626 -46.1085
1 40.7148 16.2711 -46.146
4 40.7325 19.0085 -48.879
4 39.3747 17.6507 -47.5213
1 39.3739 20.4024 -44.703
1 42.0504 17.6404 -44.5905
4 42.0902 20.3663 -47.5213
4 43.448 16.293 -48.879
1 43.4045 18.9482 -46.0399
1 46.25 16.3245 -46.0407
4 46.1635 19.0085 -48.879
4 44.8058 17.6507 -47.5213
1 44.6853 20.4054 -44.7104
1 47.5736 17.773 -44.8122
4 47.5213 20.3663 -47.5213
4 48.879 16.293 -48.879
1 48.9783 19.0907 -46.1368
1 51.5713 16.2518 -45.9892
4 51.5945 19.0085 -48.879
4 50.2368 17.6507 -47.5213
1 50.2678 20.4875 -44.6708
1 52.9428 17.6832 -44.5692
4 52.9522 20.3663 -47.5213
4 0 21.724 -48.879
3 2.79337 21.735 -46.1674
4 2.7155 24.4395 -48.879
4 1.35775 23.0817 -47.5213
3 1.35332 25.932 -44.5254
3 4.07252 23.0513 -44.7165
4 4.07325 25.7973 -47.5213
4 5.431 21.724 -48.879
3 5.48542 24.475 -46.0989
3 8.16422 21.7784 -46.1572
4 8.1465 24.4395 -48.879
4 6.78875 23.0817 -47.5213
3 6.91068 25.795 -44.7259
3 9.43533 23.0584 -44.6225
4 9.50425 25.7973 -47.5213
4 10.862 21.724 -48.879
3 10.7662 24.3894 -46.1591
3 13.4782 21.6262 -46.1559
4 13.5775 24.4395 -48.879
4 12.2197 23.0817 -47.5213
3 12.1397 25.8291 -44.6702
3 14.8938 23.094 -44.7068
4 14.9352 25.7973 -47.5213
4 16.293 21.724 -48.879
3 16.3449 24.4045 -46.1264
1 19.0094 21.7151 -46.073
4 19.0085 24.4395 -48.879
4 17.6507 23.0817 -47.5213
1 17.6682 25.7341 -44.7091
1 20.5075 22.9713 -44.6963
4 20.3663 25.7973 -47.5213
4 21.724 21.724 -48.879
1 21.7517 24.3951 -46.1256
1 24.4537 21.6256 -46.1549
4 24.4395 24.4395 -48.879
4 23.0817 23.0817 -47.5213
1 22.9687 25.7952 -44.8002
1 25.8007 23.0581 -44.7421
4 25.7973 25.7973 -47.5213
4 27.155 21.724 -48.879
1 27.1308 24.449 -46.0972
1 29.9173 21.7809 -46.1947
4 29.8705 24.4395 -48.879
4 28.5128 23.0817 -47.5213
1 28.5256 25.8451 -44.6625
1 31.2172 23.0907 -44.5889
4 31.2282 25.7973 -47.5213
4 32.586 21.724 -48.879