12960
 Atoms. Timestep: 160000
4 0 0 -54.31
4 0 2.7155 -51.5945
4 2.7155 0 -51.5945
4 2.7155 2.7155 -54.31
4 1.35775 1.35775 -52.9522
4 1.35775 4.07325 -50.2368
4 4.07325 1.35775 -50.2368
4 4.07325 4.07325 -52.9522
4 5.431 0 -54.31
4 5.431 2.7155 -51.5945
4 8.1465 0 -51.5945
4 8.1465 2.7155 -54.31
4 6.78875 1.35775 -52.9522
4 6.78875 4.07325 -50.2368
4 9.50425 1.35775 -50.2368
4 9.50425 4.07325 -52.9522
4 10.862 0 -54.31
4 10.862 2.7155 -51.5945
4 13.5775 0 -51.5945
4 13.5775 2.7155 -54.31
4 12.2197 1.35775 -52.9522
4 12.2197 4.07325 -50.2368
4 14.9352 1.35775 -50.2368
4 14.9352 4.07325 -52.9522
4 16.293 0 -54.31
4 16.293 2.7155 -51.5945
4 19.0085 0 -51.5945
4 19.0085 2.7155 -54.31
4 17.6507 1.35775 -52.9522
4 17.6507 4.07325 -50.2368
4 20.3663 1.35775 -50.2368
4 20.3663 4.07325 -52.9522
4 21.724 0 -54.31
4 21.724 2.7155 -51.5945
4 24.4395 0 -51.5945
4 24.4395 2.7155 -54.31
4 23.0817 1.35775 -52.9522
4 23.0817 4.07325 -50.2368
4 25.7973 1.35775 -50.2368
4 25.7973 4.07325 -52.9522
4 27.155 0 -54.31
4 27.155 2.7155 -51.5945
4 29.8705 0 -51.5945
4 29.8705 2.7155 -54.31
4 28.5128 1.35775 -52.9522
4 28.5128 4.07325 -50.2368
4 31.2282 1.35775 -50.2368
4 31.2282 4.07325 -52.9522
4 32.586 0 -54.31
4 32.586 2.7155 -51.5945
4 35.3015 0 -51.5945
4 35.3015 2.7155 -54.31
4 33.9438 1.35775 -52.9522
4 33.9438 4.07325 -50.2368
4 36.6593 1.35775 -50.2368
4 36.6593 4.07325 -52.9522
4 38.017 0 -54.31
4 38.017 2.7155 -51.5945
4 40.7325 0 -51.5945
4 40.7325 2.7155 -54.31
4 39.3747 1.35775 -52.9522
4 39.3747 4.07325 -50.2368
4 42.0902 1.35775 -50.2368
4 42.0902 4.07325 -52.9522
4 43.448 0 -54.31
4 43.448 2.7155 -51.5945
4 46.1635 0 -51.5945
4 46.1635 2.7155 -54.31
4 44.8058 1.35775 -52.9522
4 44.8058 4.07325 -50.2368
4 47.5213 1.35775 -50.2368
4 47.5213 4.07325 -52.9522
4 48.879 0 -54.31
4 48.879 2.7155 -51.5945
4 51.5945 0 -51.5945
4 51.5945 2.7155 -54.31
4 50.2368 1.35775 -52.9522
4 50.2368 4.07325 -50.2368
4 52.9522 1.35775 -50.2368
4 52.9522 4.07325 -52.9522
4 0 5.431 -54.31
4 0 8.1465 -51.5945
4 2.7155 5.431 -51.5945
4 2.7155 8.1465 -54.31
4 1.35775 6.78875 -52.9522
4 1.35775 9.50425 -50.2368
4 4.07325 6.78875 -50.2368
4 4.07325 9.50425 -52.9522
4 5.431 5.431 -54.31
4 5.431 8.1465 -51.5945
4 8.1465 5.431 -51.5945
4 8.1465 8.1465 -54.31
4 6.78875 6.78875 -52.9522
4 6.78875 9.50425 -50.2368
4 9.50425 6.78875 -50.2368
4 9.50425 9.50425 -52.9522
4 10.862 5.431 -54.31
4 10.862 8.1465 -51.5945
4 13.5775 5.431 -51.5945
4 13.5775 8.1465 -54.31
4 12.2197 6.78875 -52.9522
4 12.2197 9.50425 -50.2368
4 14.9352 6.78875 -50.2368
4 14.9352 9.50425 -52.9522
4 16.293 5.431 -54.31
4 16.293 8.1465 -51.5945
4 19.0085 5.431 -51.5945
4 19.0085 8.1465 -54.31
4 17.6507 6.78875 -52.9522
4 17.6507 9.50425 -50.2368
4 20.3663 6.78875 -50.2368
4 20.3663 9.50425 -52.9522
4 21.724 5.431 -54.31
4 21.724 8.1465 -51.5945
4 24.4395 5.431 -51.5945
4 24.4395 8.1465 -54.31
4 23.0817 6.78875 -52.9522
4 23.0817 9.50425 -50.2368
4 25.7973 6.78875 -50.2368
4 25.7973 9.50425 -52.9522
4 27.155 5.431 -54.31
4 27.155 8.1465 -51.5945
4 29.8705 5.431 -51.5945
4 29.8705 8.1465 -54.31
4 28.5128 6.78875 -52.9522
4 28.5128 9.50425 -50.2368
4 31.2282 6.78875 -50.2368
4 31.2282 9.50425 -52.9522
4 32.586 5.431 -54.31
4 32.586 8.1465 -51.5945
4 35.3015 5.431 -51.5945
4 35.3015 8.1465 -54.31
4 33.9438 6.78875 -52.9522
4 33.9438 9.50425 -50.2368
4 36.6593 6.78875 -50.2368
4 36.6593 9.50425 -52.9522
4 38.017 5.431 -54.31
4 38.017 8.1465 -51.5945
4 40.7325 5.431 -51.5945
4 40.7325 8.1465 -54.31
4 39.3747 6.78875 -52.9522
4 39.3747 9.50425 -50.2368
4 42.0902 6.78875 -50.2368
4 42.0902 9.50425 -52.9522
4 43.448 5.431 -54.31
4 43.448 8.1465 -51.5945
4 46.1635 5.431 -51.5945
4 46.1635 8.1465 -54.31
4 44.8058 6.78875 -52.9522
4 44.8058 9.50425 -50.2368
4 47.5213 6.78875 -50.2368
4 47.5213 9.50425 -52.9522
4 48.879 5.431 -54.31
4 48.879 8.1465 -51.5945
4 51.5945 5.431 -51.5945
4 51.5945 8.1465 -54.31
4 50.2368 6.78875 -52.9522
4 50.2368 9.50425 -50.2368
4 52.9522 6.78875 -50.2368
4 52.9522 9.50425 -52.9522
4 0 10.862 -54.31
4 0 13.5775 -51.5945
4 2.7155 10.862 -51.5945
4 2.7155 13.5775 -54.31
4 1.35775 12.2197 -52.9522
4 1.35775 14.9352 -50.2368
4 4.07325 12.2197 -50.2368
4 4.07325 14.9352 -52.9522
4 5.431 10.862 -54.31
4 5.431 13.5775 -51.5945
4 8.1465 10.862 -51.5945
4 8.1465 13.5775 -54.31
4 6.78875 12.2197 -52.9522
4 6.78875 14.9352 -50.2368
4 9.50425 12.2197 -50.2368
4 9.50425 14.9352 -52.9522
4 10.862 10.862 -54.31
4 10.862 13.5775 -51.5945
4 13.5775 10.862 -51.5945
4 13.5775 13.5775 -54.31
4 12.2197 12.2197 -52.9522
4 12.2197 14.9352 -50.2368
4 14.9352 12.2197 -50.2368
4 14.9352 14.9352 -52.9522
4 16.293 10.862 -54.31
4 16.293 13.5775 -51.5945
4 19.0085 10.862 -51.5945
4 19.0085 13.5775 -54.31
4 17.6507 12.2197 -52.9522
4 17.6507 14.9352 -50.2368
4 20.3663 12.2197 -50.2368
4 20.3663 14.9352 -52.9522
4 21.724 10.862 -54.31
4 21.724 13.5775 -51.5945
4 24.4395 10.862 -51.5945
4 24.4395 13.5775 -54.31
4 23.0817 12.2197 -52.9522
4 23.0817 14.9352 -50.2368
4 25.7973 12.2197 -50.2368
4 25.7973 14.9352 -52.9522
4 27.155 10.862 -54.31
4 27.155 13.5775 -51.5945
4 29.8705 10.862 -51.5945
4 29.8705 13.5775 -54.31
4 28.5128 12.2197 -52.9522
4 28.5128 14.9352 -50.2368
4 31.2282 12.2197 -50.2368
4 31.2282 14.9352 -52.9522
4 32.586 10.862 -54.31
4 32.586 13.5775 -51.5945
4 35.3015 10.862 -51.5945
4 35.3015 13.5775 -54.31
4 33.9438 12.2197 -52.9522
4 33.9438 14.9352 -50.2368
4 36.6593 12.2197 -50.2368
4 36.6593 14.9352 -52.9522
4 38.017 10.862 -54.31
4 38.017 13.5775 -51.5945
4 40.7325 10.862 -51.5945
4 40.7325 13.5775 -54.31
4 39.3747 12.2197 -52.9522
4 39.3747 14.9352 -50.2368
4 42.0902 12.2197 -50.2368
4 42.0902 14.9352 -52.9522
4 43.448 10.862 -54.31
4 43.448 13.5775 -51.5945
4 46.1635 10.862 -51.5945
4 46.1635 13.5775 -54.31
4 44.8058 12.2197 -52.9522
4 44.8058 14.9352 -50.2368
4 47.5213 12.2197 -50.2368
4 47.5213 14.9352 -52.9522
4 48.879 10.862 -54.31
4 48.879 13.5775 -51.5945
4 51.5945 10.862 -51.5945
4 51.5945 13.5775 -54.31
4 50.2368 12.2197 -52.9522
4 50.2368 14.9352 -50.2368
4 52.9522 12.2197 -50.2368
4 52.9522 14.9352 -52.9522
4 0 16.293 -54.31
4 0 19.0085 -51.5945
4 2.7155 16.293 -51.5945
4 2.7155 19.0085 -54.31
4 1.35775 17.6507 -52.9522
4 1.35775 20.3663 -50.2368
4 4.07325 17.6507 -50.2368
4 4.07325 20.3663 -52.9522
4 5.431 16.293 -54.31
4 5.431 19.0085 -51.5945
4 8.1465 16.293 -51.5945
4 8.1465 19.0085 -54.31
4 6.78875 17.6507 -52.9522
4 6.78875 20.3663 -50.2368
4 9.50425 17.6507 -50.2368
4 9.50425 20.3663 -52.9522
4 10.862 16.293 -54.31
4 10.862 19.0085 -51.5945
4 13.5775 16.293 -51.5945
4 13.5775 19.0085 -54.31
4 12.2197 17.6507 -52.9522
4 12.2197 20.3663 -50.2368
4 14.9352 17.6507 -50.2368
4 14.9352 20.3663 -52.9522
4 16.293 16.293 -54.31
4 16.293 19.0085 -51.5945
4 19.0085 16.293 -51.5945
4 19.0085 19.0085 -54.31
4 17.6507 17.6507 -52.9522
4 17.6507 20.3663 -50.2368
4 20.3663 17.6507 -50.2368
4 20.3663 20.3663 -52.9522
4 21.724 16.293 -54.31
4 21.724 19.0085 -51.5945
4 24.4395 16.293 -51.5945
4 24.4395 19.0085 -54.31
4 23.0817 17.6507 -52.9522
4 23.0817 20.3663 -50.2368
4 25.7973 17.6507 -50.2368
4 25.7973 20.3663 -52.9522
4 27.155 16.293 -54.31
4 27.155 19.0085 -51.5945
4 29.8705 16.293 -51.5945
4 29.8705 19.0085 -54.31
4 28.5128 17.6507 -52.9522
4 28.5128 20.3663 -50.2368
4 31.2282 17.6507 -50.2368
4 31.2282 20.3663 -52.9522
4 32.586 16.293 -54.31
4 32.586 19.0085 -51.5945
4 35.3015 16.293 -51.5945
4 35.3015 19.0085 -54.31
4 33.9438 17.6507 -52.9522
4 33.9438 20.3663 -50.2368
4 36.6593 17.6507 -50.2368
4 36.6593 20.3663 -52.9522
4 38.017 16.293 -54.31
4 38.017 19.0085 -51.5945
4 40.7325 16.293 -51.5945
4 40.7325 19.0085 -54.31
4 39.3747 17.6507 -52.9522
4 39.3747 20.3663 -50.2368
4 42.0902 17.6507 -50.2368
4 42.0902 20.3663 -52.9522
4 43.448 16.293 -54.31
4 43.448 19.0085 -51.5945
4 46.1635 16.293 -51.5945
4 46.1635 19.0085 -54.31
4 44.8058 17.6507 -52.9522
4 44.8058 20.3663 -50.2368
4 47.5213 17.6507 -50.2368
4 47.5213 20.3663 -52.9522
4 48.879 16.293 -54.31
4 48.879 19.0085 -51.5945
4 51.5945 16.293 -51.5945
4 51.5945 19.0085 -54.31
4 50.2368 17.6507 -52.9522
4 50.2368 20.3663 -50.2368
4 52.9522 17.6507 -50.2368
4 52.9522 20.3663 -52.9522
4 0 21.724 -54.31
4 0 24.4395 -51.5945
4 2.7155 21.724 -51.5945
4 2.7155 24.4395 -54.31
4 1.35775 23.0817 -52.9522
4 1.35775 25.7973 -50.2368
4 4.07325 23.0817 -50.2368
4 4.07325 25.7973 -52.9522
4 5.431 21.724 -54.31
4 5.431 24.4395 -51.5945
4 8.1465 21.724 -51.5945
4 8.1465 24.4395 -54.31
4 6.78875 23.0817 -52.9522
4 6.78875 25.7973 -50.2368
4 9.50425 23.0817 -50.2368
4 9.50425 25.7973 -52.9522
4 10.862 21.724 -54.31
4 10.862 24.4395 -51.5945
4 13.5775 21.724 -51.5945
4 13.5775 24.4395 -54.31
4 12.2197 23.0817 -52.9522
4 12.2197 25.7973 -50.2368
4 14.9352 23.0817 -50.2368
4 14.9352 25.7973 -52.9522
4 16.293 21.724 -54.31
4 16.293 24.4395 -51.5945
4 19.0085 21.724 -51.5945
4 19.0085 24.4395 -54.31
4 17.6507 23.0817 -52.9522
4 17.6507 25.7973 -50.2368
4 20.3663 23.0817 -50.2368
4 20.3663 25.7973 -52.9522
4 21.724 21.724 -54.31
4 21.724 24.4395 -51.5945
4 24.4395 21.724 -51.5945
4 24.4395 24.4395 -54.31
4 23.0817 23.0817 -52.9522
4 23.0817 25.7973 -50.2368
4 25.7973 23.0817 -50.2368
4 25.7973 25.7973 -52.9522
4 27.155 21.724 -54.31
4 27.155 24.4395 -51.5945
4 29.8705 21.724 -51.5945
4 29.8705 24.4395 -54.31
4 28.5128 23.0817 -52.9522
4 28.5128 25.7973 -50.2368
4 31.2282 23.0817 -50.2368
4 31.2282 25.7973 -52.9522
4 32.586 21.724 -54.31
4 32.586 24.4395 -51.5945
4 35.3015 21.724 -51.5945
4 35.3015 24.4395 -54.31
4 33.9438 23.0817 -52.9522
4 33.9438 25.7973 -50.2368
4 36.6593 23.0817 -50.2368
4 36.6593 25.7973 -52.9522
4 38.017 21.724 -54.31
4 38.017 24.4395 -51.5945
4 40.7325 21.724 -51.5945
4 40.7325 24.4395 -54.31
4 39.3747 23.0817 -52.9522
4 39.3747 25.7973 -50.2368
4 42.0902 23.0817 -50.2368
4 42.0902 25.7973 -52.9522
4 43.448 21.724 -54.31
4 43.448 24.4395 -51.5945
4 46.1635 21.724 -51.5945
4 46.1635 24.4395 -54.31
4 44.8058 23.0817 -52.9522
4 44.8058 25.7973 -50.2368
4 47.5213 23.0817 -50.2368
4 47.5213 25.7973 -52.9522
4 48.879 21.724 -54.31
4 48.879 24.4395 -51.5945
4 51.5945 21.724 -51.5945
4 51.5945 24.4395 -54.31
4 50.2368 23.0817 -52.9522
4 50.2368 25.7973 -50.2368
4 52.9522 23.0817 -50.2368
4 52.9522 25.7973 -52.9522
4 0 27.155 -54.31
4 0 29.8705 -51.5945
4 2.7155 27.155 -51.5945
4 2.7155 29.8705 -54.31
4 1.35775 28.5128 -52.9522
4 1.35775 31.2282 -50.2368
4 4.07325 28.5128 -50.2368
4 4.07325 31.2282 -52.9522
4 5.431 27.155 -54.31
4 5.431 29.8705 -51.5945
4 8.1465 27.155 -51.5945
4 8.1465 29.8705 -54.31
4 6.78875 28.5128 -52.9522
4 6.78875 31.2282 -50.2368
4 9.50425 28.5128 -50.2368
4 9.50425 31.2282 -52.9522
4 10.862 27.155 -54.31
4 10.862 29.8705 -51.5945
4 13.5775 27.155 -51.5945
4 13.5775 29.8705 -54.31
4 12.2197 28.5128 -52.9522
4 12.2197 31.2282 -50.2368
4 14.9352 28.5128 -50.2368
4 14.9352 31.2282 -52.9522
4 16.293 27.155 -54.31
4 16.293 29.8705 -51.5945
4 19.0085 27.155 -51.5945
4 19.0085 29.8705 -54.31
4 17.6507 28.5128 -52.9522
4 17.6507 31.2282 -50.2368
4 20.3663 28.5128 -50.2368
4 20.3663 31.2282 -52.9522
4 21.724 27.155 -54.31
4 21.724 29.8705 -51.5945
4 24.4395 27.155 -51.5945
4 24.4395 29.8705 -54.31
4 23.0817 28.5128 -52.9522
4 23.0817 31.2282 -50.2368
4 25.7973 28.5128 -50.2368
4 25.7973 31.2282 -52.9522
4 27.155 27.155 -54.31
4 27.155 29.8705 -51.5945
4 29.8705 27.155 -51.5945
4 29.8705 29.8705 -54.31
4 28.5128 28.5128 -52.9522
4 28.5128 31.2282 -50.2368
4 31.2282 28.5128 -50.2368
4 31.2282 31.2282 -52.9522
4 32.586 27.155 -54.31
4 32.586 29.8705 -51.5945
4 35.3015 27.155 -51.5945
4 35.3015 29.8705 -54.31
4 33.9438 28.5128 -52.9522
4 33.9438 31.2282 -50.2368
4 36.6593 28.5128 -50.2368
4 36.6593 31.2282 -52.9522
4 38.017 27.155 -54.31
4 38.017 29.8705 -51.5945
4 40.7325 27.155 -51.5945
4 40.7325 29.8705 -54.31
4 39.3747 28.5128 -52.9522
4 39.3747 31.2282 -50.2368
4 42.0902 28.5128 -50.2368
4 42.0902 31.2282 -52.9522
4 43.448 27.155 -54.31
4 43.448 29.8705 -51.5945
4 46.1635 27.155 -51.5945
4 46.1635 29.8705 -54.31
4 44.8058 28.5128 -52.9522
4 44.8058 31.2282 -50.2368
4 47.5213 28.5128 -50.2368
4 47.5213 31.2282 -52.9522
4 48.879 27.155 -54.31
4 48.879 29.8705 -51.5945
4 51.5945 27.155 -51.5945
4 51.5945 29.8705 -54.31
4 50.2368 28.5128 -52.9522
4 50.2368 31.2282 -50.2368
4 52.9522 28.5128 -50.2368
4 52.9522 31.2282 -52.9522
4 0 32.586 -54.31
4 0 35.3015 -51.5945
4 2.7155 32.586 -51.5945
4 2.7155 35.3015 -54.31
4 1.35775 33.9438 -52.9522
4 1.35775 36.6593 -50.2368
4 4.07325 33.9438 -50.2368
4 4.07325 36.6593 -52.9522
4 5.431 32.586 -54.31
4 5.431 35.3015 -51.5945
4 8.1465 32.586 -51.5945
4 8.1465 35.3015 -54.31
4 6.78875 33.9438 -52.9522
4 6.78875 36.6593 -50.2368
4 9.50425 33.9438 -50.2368
4 9.50425 36.6593 -52.9522
4 10.862 32.586 -54.31
4 10.862 35.3015 -51.5945
4 13.5775 32.586 -51.5945
4 13.5775 35.3015 -54.31
4 12.2197 33.9438 -52.9522
4 12.2197 36.6593 -50.2368
4 14.9352 33.9438 -50.2368
4 14.9352 36.6593 -52.9522
4 16.293 32.586 -54.31
4 16.293 35.3015 -51.5945
4 19.0085 32.586 -51.5945
4 19.0085 35.3015 -54.31
4 17.6507 33.9438 -52.9522
4 17.6507 36.6593 -50.2368
4 20.3663 33.9438 -50.2368
4 20.3663 36.6593 -52.9522
4 21.724 32.586 -54.31
4 21.724 35.3015 -51.5945
4 24.4395 32.586 -51.5945
4 24.4395 35.3015 -54.31
4 23.0817 33.9438 -52.9522
4 23.0817 36.6593 -50.2368
4 25.7973 33.9438 -50.2368
4 25.7973 36.6593 -52.9522
4 27.155 32.586 -54.31
4 27.155 35.3015 -51.5945
4 29.8705 32.586 -51.5945
4 29.8705 35.3015 -54.31
4 28.5128 33.9438 -52.9522
4 28.5128 36.6593 -50.2368
4 31.2282 33.9438 -50.2368
4 31.2282 36.6593 -52.9522
4 32.586 32.586 -54.31
4 32.586 35.3015 -51.5945
4 35.3015 32.586 -51.5945
4 35.3015 35.3015 -54.31
4 33.9438 33.9438 -52.9522
4 33.9438 36.6593 -50.2368
4 36.6593 33.9438 -50.2368
4 36.6593 36.6593 -52.9522
4 38.017 32.586 -54.31
4 38.017 35.3015 -51.5945
4 40.7325 32.586 -51.5945
4 40.7325 35.3015 -54.31
4 39.3747 33.9438 -52.9522
4 39.3747 36.6593 -50.2368
4 42.0902 33.9438 -50.2368
4 42.0902 36.6593 -52.9522
4 43.448 32.586 -54.31
4 43.448 35.3015 -51.5945
4 46.1635 32.586 -51.5945
4 46.1635 35.3015 -54.31
4 44.8058 33.9438 -52.9522
4 44.8058 36.6593 -50.2368
4 47.5213 33.9438 -50.2368
4 47.5213 36.6593 -52.9522
4 48.879 32.586 -54.31
4 48.879 35.3015 -51.5945
4 51.5945 32.586 -51.5945
4 51.5945 35.3015 -54.31
4 50.2368 33.9438 -52.9522
4 50.2368 36.6593 -50.2368
4 52.9522 33.9438 -50.2368
4 52.9522 36.6593 -52.9522
4 0 38.017 -54.31
4 0 40.7325 -51.5945
4 2.7155 38.017 -51.5945
4 2.7155 40.7325 -54.31
4 1.35775 39.3747 -52.9522
4 1.35775 42.0902 -50.2368
4 4.07325 39.3747 -50.2368
4 4.07325 42.0902 -52.9522
4 5.431 38.017 -54.31
4 5.431 40.7325 -51.5945
4 8.1465 38.017 -51.5945
4 8.1465 40.7325 -54.31
4 6.78875 39.3747 -52.9522
4 6.78875 42.0902 -50.2368
4 9.50425 39.3747 -50.2368
4 9.50425 42.0902 -52.9522
4 10.862 38.017 -54.31
4 10.862 40.7325 -51.5945
4 13.5775 38.017 -51.5945
4 13.5775 40.7325 -54.31
4 12.2197 39.3747 -52.9522
4 12.2197 42.0902 -50.2368
4 14.9352 39.3747 -50.2368
4 14.9352 42.0902 -52.9522
4 16.293 38.017 -54.31
4 16.293 40.7325 -51.5945
4 19.0085 38.017 -51.5945
4 19.0085 40.7325 -54.31
4 17.6507 39.3747 -52.9522
4 17.6507 42.0902 -50.2368
4 20.3663 39.3747 -50.2368
4 20.3663 42.0902 -52.9522
4 21.724 38.017 -54.31
4 21.724 40.7325 -51.5945
4 24.4395 38.017 -51.5945
4 24.4395 40.7325 -54.31
4 23.0817 39.3747 -52.9522
4 23.0817 42.0902 -50.2368
4 25.7973 39.3747 -50.2368
4 25.7973 42.0902 -52.9522
4 27.155 38.017 -54.31
4 27.155 40.7325 -51.5945
4 29.8705 38.017 -51.5945
4 29.8705 40.7325 -54.31
4 28.5128 39.3747 -52.9522
4 28.5128 42.0902 -50.2368
4 31.2282 39.3747 -50.2368
4 31.2282 42.0902 -52.9522
4 32.586 38.017 -54.31
4 32.586 40.7325 -51.5945
4 35.3015 38.017 -51.5945
4 35.3015 40.7325 -54.31
4 33.9438 39.3747 -52.9522
4 33.9438 42.0902 -50.2368
4 36.6593 39.3747 -50.2368
4 36.6593 42.0902 -52.9522
4 38.017 38.017 -54.31
4 38.017 40.7325 -51.5945
4 40.7325 38.017 -51.5945
4 40.7325 40.7325 -54.31
4 39.3747 39.3747 -52.9522
4 39.3747 42.0902 -50.2368
4 42.0902 39.3747 -50.2368
4 42.0902 42.0902 -52.9522
4 43.448 38.017 -54.31
4 43.448 40.7325 -51.5945
4 46.1635 38.017 -51.5945
4 46.1635 40.7325 -54.31
4 44.8058 39.3747 -52.9522
4 44.8058 42.0902 -50.2368
4 47.5213 39.3747 -50.2368
4 47.5213 42.0902 -52.9522
4 48.879 38.017 -54.31
4 48.879 40.7325 -51.5945
4 51.5945 38.017 -51.5945
4 51.5945 40.7325 -54.31
4 50.2368 39.3747 -52.9522
4 50.2368 42.0902 -50.2368
4 52.9522 39.3747 -50.2368
4 52.9522 42.0902 -52.9522
4 0 43.448 -54.31
4 0 46.1635 -51.5945
4 2.7155 43.448 -51.5945
4 2.7155 46.1635 -54.31
4 1.35775 44.8058 -52.9522
4 1.35775 47.5213 -50.2368
4 4.07325 44.8058 -50.2368
4 4.07325 47.5213 -52.9522
4 5.431 43.448 -54.31
4 5.431 46.1635 -51.5945
4 8.1465 43.448 -51.5945
4 8.1465 46.1635 -54.31
4 6.78875 44.8058 -52.9522
4 6.78875 47.5213 -50.2368
4 9.50425 44.8058 -50.2368
4 9.50425 47.5213 -52.9522
4 10.862 43.448 -54.31
4 10.862 46.1635 -51.5945
4 13.5775 43.448 -51.5945
4 13.5775 46.1635 -54.31
4 12.2197 44.8058 -52.9522
4 12.2197 47.5213 -50.2368
4 14.9352 44.8058 -50.2368
4 14.9352 47.5213 -52.9522
4 16.293 43.448 -54.31
4 16.293 46.1635 -51.5945
4 19.0085 43.448 -51.5945
4 19.0085 46.1635 -54.31
4 17.6507 44.8058 -52.9522
4 17.6507 47.5213 -50.2368
4 20.3663 44.8058 -50.2368
4 20.3663 47.5213 -52.9522
4 21.724 43.448 -54.31
4 21.724 46.1635 -51.5945
4 24.4395 43.448 -51.5945
4 24.4395 46.1635 -54.31
4 23.0817 44.8058 -52.9522
4 23.0817 47.5213 -50.2368
4 25.7973 44.8058 -50.2368
4 25.7973 47.5213 -52.9522
4 27.155 43.448 -54.31
4 27.155 46.1635 -51.5945
4 29.8705 43.448 -51.5945
4 29.8705 46.1635 -54.31
4 28.5128 44.8058 -52.9522
4 28.5128 47.5213 -50.2368
4 31.2282 44.8058 -50.2368
4 31.2282 47.5213 -52.9522
4 32.586 43.448 -54.31
4 32.586 46.1635 -51.5945
4 35.3015 43.448 -51.5945
4 35.3015 46.1635 -54.31
4 33.9438 44.8058 -52.9522
4 33.9438 47.5213 -50.2368
4 36.6593 44.8058 -50.2368
4 36.6593 47.5213 -52.9522
4 38.017 43.448 -54.31
4 38.017 46.1635 -51.5945
4 40.7325 43.448 -51.5945
4 40.7325 46.1635 -54.31
4 39.3747 44.8058 -52.9522
4 39.3747 47.5213 -50.2368
4 42.0902 44.8058 -50.2368
4 42.0902 47.5213 -52.9522
4 43.448 43.448 -54.31
4 43.448 46.1635 -51.5945
4 46.1635 43.448 -51.5945
4 46.1635 46.1635 -54.31
4 44.8058 44.8058 -52.9522
4 44.8058 47.5213 -50.2368
4 47.5213 44.8058 -50.2368
4 47.5213 47.5213 -52.9522
4 48.879 43.448 -54.31
4 48.879 46.1635 -51.5945
4 51.5945 43.448 -51.5945
4 51.5945 46.1635 -54.31
4 50.2368 44.8058 -52.9522
4 50.2368 47.5213 -50.2368
4 52.9522 44.8058 -50.2368
4 52.9522 47.5213 -52.9522
4 0 48.879 -54.31
4 0 51.5945 -51.5945
4 2.7155 48.879 -51.5945
4 2.7155 51.5945 -54.31
4 1.35775 50.2368 -52.9522
4 1.35775 52.9522 -50.2368
4 4.07325 50.2368 -50.2368
4 4.07325 52.9522 -52.9522
4 5.431 48.879 -54.31
4 5.431 51.5945 -51.5945
4 8.1465 48.879 -51.5945
4 8.1465 51.5945 -54.31
4 6.78875 50.2368 -52.9522
4 6.78875 52.9522 -50.2368
4 9.50425 50.2368 -50.2368
4 9.50425 52.9522 -52.9522
4 10.862 48.879 -54.31
4 10.862 51.5945 -51.5945
4 13.5775 48.879 -51.5945
4 13.5775 51.5945 -54.31
4 12.2197 50.2368 -52.9522
4 12.2197 52.9522 -50.2368
4 14.9352 50.2368 -50.2368
4 14.9352 52.9522 -52.9522
4 16.293 48.879 -54.31
4 16.293 51.5945 -51.5945
4 19.0085 48.879 -51.5945
4 19.0085 51.5945 -54.31
4 17.6507 50.2368 -52.9522
4 17.6507 52.9522 -50.2368
4 20.3663 50.2368 -50.2368
4 20.3663 52.9522 -52.9522
4 21.724 48.879 -54.31
4 21.724 51.5945 -51.5945
4 24.4395 48.879 -51.5945
4 24.4395 51.5945 -54.31
4 23.0817 50.2368 -52.9522
4 23.0817 52.9522 -50.2368
4 25.7973 50.2368 -50.2368
4 25.7973 52.9522 -52.9522
4 27.155 48.879 -54.31
4 27.155 51.5945 -51.5945
4 29.8705 48.879 -51.5945
4 29.8705 51.5945 -54.31
4 28.5128 50.2368 -52.9522
4 28.5128 52.9522 -50.2368
4 31.2282 50.2368 -50.2368
4 31.2282 52.9522 -52.9522
4 32.586 48.879 -54.31
4 32.586 51.5945 -51.5945
4 35.3015 48.879 -51.5945
4 35.3015 51.5945 -54.31
4 33.9438 50.2368 -52.9522
4 33.9438 52.9522 -50.2368
4 36.6593 50.2368 -50.2368
4 36.6593 52.9522 -52.9522
4 38.017 48.879 -54.31
4 38.017 51.5945 -51.5945
4 40.7325 48.879 -51.5945
4 40.7325 51.5945 -54.31
4 39.3747 50.2368 -52.9522
4 39.3747 52.9522 -50.2368
4 42.0902 50.2368 -50.2368
4 42.0902 52.9522 -52.9522
4 43.448 48.879 -54.31
4 43.448 51.5945 -51.5945
4 46.1635 48.879 -51.5945
4 46.1635 51.5945 -54.31
4 44.8058 50.2368 -52.9522
4 44.8058 52.9522 -50.2368
4 47.5213 50.2368 -50.2368
4 47.5213 52.9522 -52.9522
4 48.879 48.879 -54.31
4 48.879 51.5945 -51.5945
4 51.5945 48.879 -51.5945
4 51.5945 51.5945 -54.31
4 50.2368 50.2368 -52.9522
4 50.2368 52.9522 -50.2368
4 52.9522 50.2368 -50.2368
4 52.9522 52.9522 -52.9522
4 0 0 -48.879
3 2.72911 2.69699 -14.2545
4 2.7155 2.7155 -48.879
4 1.35775 1.35775 -47.5213
3 1.27115 5.81495 -13.8342
3 4.16567 4.08989 -13.0247
4 4.07325 4.07325 -47.5213
4 5.431 0 -48.879
3 5.46833 5.48154 -14.3192
3 8.19275 2.68509 -14.3455
4 8.1465 2.7155 -48.879
4 6.78875 1.35775 -47.5213
3 6.73399 6.69557 -12.8011
3 9.53171 4.05106 -12.9692
4 9.50425 4.07325 -47.5213
4 10.862 0 -48.879
3 10.8548 5.42375 -14.3441
3 13.5762 2.62856 -14.3768
4 13.5775 2.7155 -48.879
4 12.2197 1.35775 -47.5213
3 12.1889 6.78263 -13.0138
3 14.9776 3.9204 -13.0304
4 14.9352 4.07325 -47.5213
4 16.293 0 -48.879
3 16.3283 5.40624 -14.2965
1 19.0133 2.75785 -14.3955
4 19.0085 2.7155 -48.879
4 17.6507 1.35775 -47.5213
1 17.7246 6.73268 -13.0167
1 20.3538 4.17554 -12.9445
4 20.3663 4.07325 -47.5213
4 21.724 0 -48.879
1 21.7259 5.45487 -14.3656
1 24.4372 2.66947 -14.3891
4 24.4395 2.7155 -48.879
4 23.0817 1.35775 -47.5213
1 23.2201 6.76376 -13.1212
1 25.8757 4.09517 -13.1143
4 25.7973 4.07325 -47.5213
4 27.155 0 -48.879
1 27.2082 5.44694 -14.3495
1 29.9405 2.72 -14.4536
4 29.8705 2.7155 -48.879
4 28.5128 1.35775 -47.5213
1 28.6037 6.80208 -13.1132
1 31.3675 4.09195 -13.1067
4 31.2282 4.07325 -47.5213
4 32.586 0 -48.879
1 32.6739 5.60372 -14.3725
1 35.4262 2.73813 -14.4058
4 35.3015 2.7155 -48.879
4 33.9438 1.35775 -47.5213
1 34.2127 6.78841 -12.9855
1 36.8739 4.06337 -13.0301
4 36.6593 4.07325 -47.5213
4 38.017 0 -48.879
1 38.144 5.50939 -14.3253
1 40.7624 2.74397 -14.4007
4 40.7325 2.7155 -48.879
4 39.3747 1.35775 -47.5213
1 39.5871 6.81546 -13.0222
1 42.2135 4.11464 -13.1606
4 42.0902 4.07325 -47.5213
4 43.448 0 -48.879
1 43.5443 5.47474 -14.3994
1 46.291 2.74312 -14.4545
4 46.1635 2.7155 -48.879
4 44.8058 1.35775 -47.5213
1 45.0385 6.82295 -13.1155
1 47.7991 4.11344 -13.2907
4 47.5213 4.07325 -47.5213
4 48.879 0 -48.879
1 49.1228 5.59908 -14.4967
1 52.0017 3.20805 -14.4809
4 51.5945 2.7155 -48.879
4 50.2368 1.35775 -47.5213
1 50.7293 7.11781 -13.4653
1 53.6552 4.97082 -14.156
4 52.9522 4.07325 -47.5213
4 0 5.431 -48.879
3 2.51641 7.88394 -14.2529
4 2.7155 8.1465 -48.879
4 1.35775 6.78875 -47.5213
3 1.225 11.2837 -13.7006
3 3.93772 9.31931 -13.0456
4 4.07325 9.50425 -47.5213
4 5.431 5.431 -48.879
3 5.42031 10.8071 -14.276
3 8.1653 8.08326 -14.2082
4 8.1465 8.1465 -48.879
4 6.78875 6.78875 -47.5213
3 6.74221 12.1069 -12.8394
3 9.5787 9.43419 -12.8467
4 9.50425 9.50425 -47.5213
4 10.862 5.431 -48.879
3 10.8616 10.8978 -14.2101
3 13.5879 8.10957 -14.2891
4 13.5775 8.1465 -48.879
4 12.2197 6.78875 -47.5213
3 12.1529 12.3608 -12.8243
3 14.9487 9.44824 -12.8718
4 14.9352 9.50425 -47.5213
4 16.293 5.431 -48.879
3 16.2459 10.7249 -14.3073
1 19.0359 8.18313 -14.3256
4 19.0085 8.1465 -48.879
4 17.6507 6.78875 -47.5213
1 17.5933 12.1633 -12.9181
1 20.4268 9.51018 -12.9693
4 20.3663 9.50425 -47.5213
4 21.724 5.431 -48.879
1 21.7021 10.8987 -14.2664
1 24.595 8.25875 -14.4109
4 24.4395 8.1465 -48.879
4 23.0817 6.78875 -47.5213
1 23.0973 12.2519 -12.9738
1 25.9569 9.57347 -13.0432
4 25.7973 9.50425 -47.5213
4 27.155 5.431 -48.879
1 27.2609 11.0195 -14.3507
1 29.9386 8.16414 -14.4164
4 29.8705 8.1465 -48.879
4 28.5128 6.78875 -47.5213
1 28.675 12.237 -12.9999
1 31.4155 9.3779 -13.1143
4 31.2282 9.50425 -47.5213
4 32.586 5.431 -48.879
1 32.6559 10.8726 -14.4125
1 35.443 8.24064 -14.3079
4 35.3015 8.1465 -48.879
4 33.9438 6.78875 -47.5213
1 34.1282 12.1169 -13.0649
1 36.8645 9.54366 -13.0481
4 36.6593 9.50425 -47.5213
4 38.017 5.431 -48.879
1 38.1441 10.9634 -14.3839
1 40.8318 8.24967 -14.3666
4 40.7325 8.1465 -48.879
4 39.3747 6.78875 -47.5213
1 39.609 12.2248 -13.0905
1 42.2817 9.62308 -13.1644
4 42.0902 9.50425 -47.5213
4 43.448 5.431 -48.879
1 43.6225 10.9769 -14.4555
1 46.2576 8.24953 -14.4027
4 46.1635 8.1465 -48.879
4 44.8058 6.78875 -47.5213
1 44.9913 12.2988 -13.1855
1 47.7523 9.58837 -13.1934
4 47.5213 9.50425 -47.5213
4 48.879 5.431 -48.879
1 49.093 11.0149 -14.3834
1 52.1588 8.69929 -14.5301
4 51.5945 8.1465 -48.879
4 50.2368 6.78875 -47.5213
1 50.645 12.5732 -13.4108
1 53.5611 10.6246 -14.0577
4 52.9522 9.50425 -47.5213
4 0 10.862 -48.879
3 2.56207 13.3592 -14.2502
4 2.7155 13.5775 -48.879
4 1.35775 12.2197 -47.5213
3 1.4157 17.8514 -12.4677
3 3.99112 14.7838 -12.8858
4 4.07325 14.9352 -47.5213
4 5.431 10.862 -48.879
3 5.32544 16.2417 -14.3158
3 8.15002 13.4775 -14.3489
4 8.1465 13.5775 -48.879
4 6.78875 12.2197 -47.5213
3 6.7157 17.5735 -12.9884
3 9.46514 14.8873 -12.9277
4 9.50425 14.9352 -47.5213
4 10.862 10.862 -48.879
3 10.8626 16.2976 -14.2812
3 13.5389 13.6015 -14.2279
4 13.5775 13.5775 -48.879
4 12.2197 12.2197 -47.5213
3 12.1946 17.7272 -12.9704
3 14.9258 15.0335 -12.9889
4 14.9352 14.9352 -47.5213
4 16.293 10.862 -48.879
3 16.2738 16.2831 -14.4037
1 18.9316 13.4638 -14.2901
4 19.0085 13.5775 -48.879
4 17.6507 12.2197 -47.5213
1 17.6091 17.7662 -13.0474
1 20.4197 14.9224 -13.0467
4 20.3663 14.9352 -47.5213
4 21.724 10.862 -48.879
1 21.7778 16.343 -14.3417
1 24.4476 13.6051 -14.3346
4 24.4395 13.5775 -48.879
4 23.0817 12.2197 -47.5213
1 23.198 17.6456 -12.9752
1 25.9561 14.8676 -13.0747
4 25.7973 14.9352 -47.5213
4 27.155 10.862 -48.879
1 27.235 16.2374 -14.4185
1 29.9478 13.6449 -14.3527
4 29.8705 13.5775 -48.879
4 28.5128 12.2197 -47.5213
1 28.5889 17.6346 -13.045
1 31.3794 14.9012 -12.9872
4 31.2282 14.9352 -47.5213
4 32.586 10.862 -48.879
1 32.6023 16.2923 -14.4314
1 35.3221 13.5106 -14.4015
4 35.3015 13.5775 -48.879
4 33.9438 12.2197 -47.5213
1 33.9762 17.7004 -13.1558
1 36.816 14.8503 -13.1656
4 36.6593 14.9352 -47.5213
4 38.017 10.862 -48.879
1 38.1038 16.3212 -14.473
1 40.7677 13.6375 -14.3833
4 40.7325 13.5775 -48.879
4 39.3747 12.2197 -47.5213
1 39.5831 17.649 -13.1551
1 42.1575 14.9768 -13.08
4 42.0902 14.9352 -47.5213
4 43.448 10.862 -48.879
1 43.472 16.2968 -14.3907
1 46.267 13.6582 -14.3912
4 46.1635 13.5775 -48.879
4 44.8058 12.2197 -47.5213
1 44.9646 17.7238 -13.3372
1 47.7581 15.0038 -13.1511
4 47.5213 14.9352 -47.5213
4 48.879 10.862 -48.879
1 49.0309 16.4705 -14.4061
1 51.9755 14.0826 -14.4434
4 51.5945 13.5775 -48.879
4 50.2368 12.2197 -47.5213
1 50.632 17.8346 -13.3977
1 53.4635 16.0714 -13.95
4 52.9522 14.9352 -47.5213
4 0 16.293 -48.879
3 2.6544 18.8703 -14.2665
4 2.7155 19.0085 -48.879
4 1.35775 17.6507 -47.5213
3 1.2567 22.2363 -13.8101
3 4.14565 20.2077 -13.0338
4 4.07325 20.3663 -47.5213
4 5.431 16.293 -48.879
3 5.43205 21.72 -14.2784
3 8.13661 18.9496 -14.3106
4 8.1465 19.0085 -48.879
4 6.78875 17.6507 -47.5213
3 6.75715 23.0366 -12.9149
3 9.39835 20.3849 -12.949
4 9.50425 20.3663 -47.5213
4 10.862 16.293 -48.879
3 10.8658 21.6915 -14.302
3 13.5506 19.1089 -14.2715
4 13.5775 19.0085 -48.879
4 12.2197 17.6507 -47.5213
3 12.1901 23.076 -12.9933
3 14.9048 20.4123 -12.8949
4 14.9352 20.3663 -47.5213
4 16.293 16.293 -48.879
3 16.3158 21.7251 -14.3012
1 19.0735 19.0963 -14.3643
4 19.0085 19.0085 -48.879
4 17.6507 17.6507 -47.5213
1 17.6743 23.1246 -12.8934
1 20.4566 20.4739 -12.959
4 20.3663 20.3663 -47.5213
4 21.724 16.293 -48.879
1 21.7573 21.7941 -14.3294
1 24.5775 19.0587 -14.298
4 24.4395 19.0085 -48.879
4 23.0817 17.6507 -47.5213
1 23.1614 23.1719 -12.9906
1 25.9367 20.4266 -12.9742
4 25.7973 20.3663 -47.5213
4 27.155 16.293 -48.879
1 27.2539 21.816 -14.2375
1 29.9028 19.0873 -14.3821
4 29.8705 19.0085 -48.879
4 28.5128 17.6507 -47.5213
1 28.7794 23.1528 -12.9939
1 31.351 20.395 -13.0251
4 31.2282 20.3663 -47.5213
4 32.586 16.293 -48.879
1 32.6109 21.7335 -14.3757
1 35.3386 19.0516 -14.4743
4 35.3015 19.0085 -48.879
4 33.9438 17.6507 -47.5213
1 34.0023 23.1589 -12.9923
1 36.7076 20.3024 -13.138
4 36.6593 20.3663 -47.5213
4 38.017 16.293 -48.879
1 38.0656 21.7322 -14.4071
1 40.795 19.09 -14.3992
4 40.7325 19.0085 -48.879
4 39.3747 17.6507 -47.5213
1 39.4574 23.1545 -13.1706
1 42.2594 20.4481 -13.1952
4 42.0902 20.3663 -47.5213
4 43.448 16.293 -48.879
1 43.5614 21.7998 -14.4187
1 46.3563 19.1907 -14.5749
4 46.1635 19.0085 -48.879
4 44.8058 17.6507 -47.5213
1 44.9959 23.0835 -13.1498
1 47.7882 20.4124 -13.2777
4 47.5213 20.3663 -47.5213
4 48.879 16.293 -48.879
1 49.1201 21.8497 -14.4452
1 51.9222 19.3867 -14.5616
4 51.5945 19.0085 -48.879
4 50.2368 17.6507 -47.5213
1 50.6674 23.2089 -13.3388
1 53.3861 21.2708 -14.1666
4 52.9522 20.3663 -47.5213
4 0 21.724 -48.879
3 2.49931 24.3124 -14.2709
4 2.7155 24.4395 -48.879
4 1.35775 23.0817 -47.5213
3 1.31722 28.7808 -12.5551
3 3.9339 25.7877 -13.0324
4 4.07325 25.7973 -47.5213
4 5.431 21.724 -48.879
3 5.43073 27.1231 -14.2323
3 8.19964 24.4822 -14.2771
4 8.1465 24.4395 -48.879
4 6.78875 23.0817 -47.5213
3 6.7669 28.4253 -12.8036
3 9.58404 25.8448 -12.906
4 9.50425 25.7973 -47.5213
4 10.862 21.724 -48.879
3 10.9103 27.2333 -14.3411
3 13.6371 24.377 -14.3134
4 13.5775 24.4395 -48.879
4 12.2197 23.0817 -47.5213
3 12.2916 28.519 -12.8992
3 14.9126 25.7612 -12.9725
4 14.9352 25.7973 -47.5213
4 16.293 21.724 -48.879
3 16.3112 27.168 -14.2984
1 18.9787 24.4738 -14.2903
4 19.0085 24.4395 -48.879
4 17.6507 23.0817 -47.5213
1 17.6427 28.5751 -12.9562
1 20.4066 25.7966 -12.9587
4 20.3663 25.7973 -47.5213
4 21.724 21.724 -48.879
1 21.6843 27.1369 -14.3826
1 24.4918 24.5178 -14.3012
4 24.4395 24.4395 -48.879
4 23.0817 23.0817 -47.5213
1 23.0244 28.536 -13.0074
1 25.9681 25.8106 -12.9474
4 25.7973 25.7973 -47.5213
4 27.155 21.724 -48.879
1 27.1987 27.158 -14.3373
1 29.9501 24.5321 -14.4054
4 29.8705 24.4395 -48.879
4 28.5128 23.0817 -47.5213
1 28.6165 28.5431 -13.0244
1 31.2383 25.8417 -12.9673
4 31.2282 25.7973 -47.5213
4 32.586 21.724 -48.879
1 32.6117 27.1982 -14.3338