14858
 Atoms. Timestep: 110000
4 0 0 -54.31
4 0 2.7155 -51.5945
4 2.7155 0 -51.5945
4 2.7155 2.7155 -54.31
4 1.35775 1.35775 -52.9522
4 1.35775 4.07325 -50.2368
4 4.07325 1.35775 -50.2368
4 4.07325 4.07325 -52.9522
4 5.431 0 -54.31
4 5.431 2.7155 -51.5945
4 8.1465 0 -51.5945
4 8.1465 2.7155 -54.31
4 6.78875 1.35775 -52.9522
4 6.78875 4.07325 -50.2368
4 9.50425 1.35775 -50.2368
4 9.50425 4.07325 -52.9522
4 10.862 0 -54.31
4 10.862 2.7155 -51.5945
4 13.5775 0 -51.5945
4 13.5775 2.7155 -54.31
4 12.2197 1.35775 -52.9522
4 12.2197 4.07325 -50.2368
4 14.9352 1.35775 -50.2368
4 14.9352 4.07325 -52.9522
4 16.293 0 -54.31
4 16.293 2.7155 -51.5945
4 19.0085 0 -51.5945
4 19.0085 2.7155 -54.31
4 17.6507 1.35775 -52.9522
4 17.6507 4.07325 -50.2368
4 20.3663 1.35775 -50.2368
4 20.3663 4.07325 -52.9522
4 21.724 0 -54.31
4 21.724 2.7155 -51.5945
4 24.4395 0 -51.5945
4 24.4395 2.7155 -54.31
4 23.0817 1.35775 -52.9522
4 23.0817 4.07325 -50.2368
4 25.7973 1.35775 -50.2368
4 25.7973 4.07325 -52.9522
4 27.155 0 -54.31
4 27.155 2.7155 -51.5945
4 29.8705 0 -51.5945
4 29.8705 2.7155 -54.31
4 28.5128 1.35775 -52.9522
4 28.5128 4.07325 -50.2368
4 31.2282 1.35775 -50.2368
4 31.2282 4.07325 -52.9522
4 32.586 0 -54.31
4 32.586 2.7155 -51.5945
4 35.3015 0 -51.5945
4 35.3015 2.7155 -54.31
4 33.9438 1.35775 -52.9522
4 33.9438 4.07325 -50.2368
4 36.6593 1.35775 -50.2368
4 36.6593 4.07325 -52.9522
4 38.017 0 -54.31
4 38.017 2.7155 -51.5945
4 40.7325 0 -51.5945
4 40.7325 2.7155 -54.31
4 39.3747 1.35775 -52.9522
4 39.3747 4.07325 -50.2368
4 42.0902 1.35775 -50.2368
4 42.0902 4.07325 -52.9522
4 43.448 0 -54.31
4 43.448 2.7155 -51.5945
4 46.1635 0 -51.5945
4 46.1635 2.7155 -54.31
4 44.8058 1.35775 -52.9522
4 44.8058 4.07325 -50.2368
4 47.5213 1.35775 -50.2368
4 47.5213 4.07325 -52.9522
4 48.879 0 -54.31
4 48.879 2.7155 -51.5945
4 51.5945 0 -51.5945
4 51.5945 2.7155 -54.31
4 50.2368 1.35775 -52.9522
4 50.2368 4.07325 -50.2368
4 52.9522 1.35775 -50.2368
4 52.9522 4.07325 -52.9522
4 0 5.431 -54.31
4 0 8.1465 -51.5945
4 2.7155 5.431 -51.5945
4 2.7155 8.1465 -54.31
4 1.35775 6.78875 -52.9522
4 1.35775 9.50425 -50.2368
4 4.07325 6.78875 -50.2368
4 4.07325 9.50425 -52.9522
4 5.431 5.431 -54.31
4 5.431 8.1465 -51.5945
4 8.1465 5.431 -51.5945
4 8.1465 8.1465 -54.31
4 6.78875 6.78875 -52.9522
4 6.78875 9.50425 -50.2368
4 9.50425 6.78875 -50.2368
4 9.50425 9.50425 -52.9522
4 10.862 5.431 -54.31
4 10.862 8.1465 -51.5945
4 13.5775 5.431 -51.5945
4 13.5775 8.1465 -54.31
4 12.2197 6.78875 -52.9522
4 12.2197 9.50425 -50.2368
4 14.9352 6.78875 -50.2368
4 14.9352 9.50425 -52.9522
4 16.293 5.431 -54.31
4 16.293 8.1465 -51.5945
4 19.0085 5.431 -51.5945
4 19.0085 8.1465 -54.31
4 17.6507 6.78875 -52.9522
4 17.6507 9.50425 -50.2368
4 20.3663 6.78875 -50.2368
4 20.3663 9.50425 -52.9522
4 21.724 5.431 -54.31
4 21.724 8.1465 -51.5945
4 24.4395 5.431 -51.5945
4 24.4395 8.1465 -54.31
4 23.0817 6.78875 -52.9522
4 23.0817 9.50425 -50.2368
4 25.7973 6.78875 -50.2368
4 25.7973 9.50425 -52.9522
4 27.155 5.431 -54.31
4 27.155 8.1465 -51.5945
4 29.8705 5.431 -51.5945
4 29.8705 8.1465 -54.31
4 28.5128 6.78875 -52.9522
4 28.5128 9.50425 -50.2368
4 31.2282 6.78875 -50.2368
4 31.2282 9.50425 -52.9522
4 32.586 5.431 -54.31
4 32.586 8.1465 -51.5945
4 35.3015 5.431 -51.5945
4 35.3015 8.1465 -54.31
4 33.9438 6.78875 -52.9522
4 33.9438 9.50425 -50.2368
4 36.6593 6.78875 -50.2368
4 36.6593 9.50425 -52.9522
4 38.017 5.431 -54.31
4 38.017 8.1465 -51.5945
4 40.7325 5.431 -51.5945
4 40.7325 8.1465 -54.31
4 39.3747 6.78875 -52.9522
4 39.3747 9.50425 -50.2368
4 42.0902 6.78875 -50.2368
4 42.0902 9.50425 -52.9522
4 43.448 5.431 -54.31
4 43.448 8.1465 -51.5945
4 46.1635 5.431 -51.5945
4 46.1635 8.1465 -54.31
4 44.8058 6.78875 -52.9522
4 44.8058 9.50425 -50.2368
4 47.5213 6.78875 -50.2368
4 47.5213 9.50425 -52.9522
4 48.879 5.431 -54.31
4 48.879 8.1465 -51.5945
4 51.5945 5.431 -51.5945
4 51.5945 8.1465 -54.31
4 50.2368 6.78875 -52.9522
4 50.2368 9.50425 -50.2368
4 52.9522 6.78875 -50.2368
4 52.9522 9.50425 -52.9522
4 0 10.862 -54.31
4 0 13.5775 -51.5945
4 2.7155 10.862 -51.5945
4 2.7155 13.5775 -54.31
4 1.35775 12.2197 -52.9522
4 1.35775 14.9352 -50.2368
4 4.07325 12.2197 -50.2368
4 4.07325 14.9352 -52.9522
4 5.431 10.862 -54.31
4 5.431 13.5775 -51.5945
4 8.1465 10.862 -51.5945
4 8.1465 13.5775 -54.31
4 6.78875 12.2197 -52.9522
4 6.78875 14.9352 -50.2368
4 9.50425 12.2197 -50.2368
4 9.50425 14.9352 -52.9522
4 10.862 10.862 -54.31
4 10.862 13.5775 -51.5945
4 13.5775 10.862 -51.5945
4 13.5775 13.5775 -54.31
4 12.2197 12.2197 -52.9522
4 12.2197 14.9352 -50.2368
4 14.9352 12.2197 -50.2368
4 14.9352 14.9352 -52.9522
4 16.293 10.862 -54.31
4 16.293 13.5775 -51.5945
4 19.0085 10.862 -51.5945
4 19.0085 13.5775 -54.31
4 17.6507 12.2197 -52.9522
4 17.6507 14.9352 -50.2368
4 20.3663 12.2197 -50.2368
4 20.3663 14.9352 -52.9522
4 21.724 10.862 -54.31
4 21.724 13.5775 -51.5945
4 24.4395 10.862 -51.5945
4 24.4395 13.5775 -54.31
4 23.0817 12.2197 -52.9522
4 23.0817 14.9352 -50.2368
4 25.7973 12.2197 -50.2368
4 25.7973 14.9352 -52.9522
4 27.155 10.862 -54.31
4 27.155 13.5775 -51.5945
4 29.8705 10.862 -51.5945
4 29.8705 13.5775 -54.31
4 28.5128 12.2197 -52.9522
4 28.5128 14.9352 -50.2368
4 31.2282 12.2197 -50.2368
4 31.2282 14.9352 -52.9522
4 32.586 10.862 -54.31
4 32.586 13.5775 -51.5945
4 35.3015 10.862 -51.5945
4 35.3015 13.5775 -54.31
4 33.9438 12.2197 -52.9522
4 33.9438 14.9352 -50.2368
4 36.6593 12.2197 -50.2368
4 36.6593 14.9352 -52.9522
4 38.017 10.862 -54.31
4 38.017 13.5775 -51.5945
4 40.7325 10.862 -51.5945
4 40.7325 13.5775 -54.31
4 39.3747 12.2197 -52.9522
4 39.3747 14.9352 -50.2368
4 42.0902 12.2197 -50.2368
4 42.0902 14.9352 -52.9522
4 43.448 10.862 -54.31
4 43.448 13.5775 -51.5945
4 46.1635 10.862 -51.5945
4 46.1635 13.5775 -54.31
4 44.8058 12.2197 -52.9522
4 44.8058 14.9352 -50.2368
4 47.5213 12.2197 -50.2368
4 47.5213 14.9352 -52.9522
4 48.879 10.862 -54.31
4 48.879 13.5775 -51.5945
4 51.5945 10.862 -51.5945
4 51.5945 13.5775 -54.31
4 50.2368 12.2197 -52.9522
4 50.2368 14.9352 -50.2368
4 52.9522 12.2197 -50.2368
4 52.9522 14.9352 -52.9522
4 0 16.293 -54.31
4 0 19.0085 -51.5945
4 2.7155 16.293 -51.5945
4 2.7155 19.0085 -54.31
4 1.35775 17.6507 -52.9522
4 1.35775 20.3663 -50.2368
4 4.07325 17.6507 -50.2368
4 4.07325 20.3663 -52.9522
4 5.431 16.293 -54.31
4 5.431 19.0085 -51.5945
4 8.1465 16.293 -51.5945
4 8.1465 19.0085 -54.31
4 6.78875 17.6507 -52.9522
4 6.78875 20.3663 -50.2368
4 9.50425 17.6507 -50.2368
4 9.50425 20.3663 -52.9522
4 10.862 16.293 -54.31
4 10.862 19.0085 -51.5945
4 13.5775 16.293 -51.5945
4 13.5775 19.0085 -54.31
4 12.2197 17.6507 -52.9522
4 12.2197 20.3663 -50.2368
4 14.9352 17.6507 -50.2368
4 14.9352 20.3663 -52.9522
4 16.293 16.293 -54.31
4 16.293 19.0085 -51.5945
4 19.0085 16.293 -51.5945
4 19.0085 19.0085 -54.31
4 17.6507 17.6507 -52.9522
4 17.6507 20.3663 -50.2368
4 20.3663 17.6507 -50.2368
4 20.3663 20.3663 -52.9522
4 21.724 16.293 -54.31
4 21.724 19.0085 -51.5945
4 24.4395 16.293 -51.5945
4 24.4395 19.0085 -54.31
4 23.0817 17.6507 -52.9522
4 23.0817 20.3663 -50.2368
4 25.7973 17.6507 -50.2368
4 25.7973 20.3663 -52.9522
4 27.155 16.293 -54.31
4 27.155 19.0085 -51.5945
4 29.8705 16.293 -51.5945
4 29.8705 19.0085 -54.31
4 28.5128 17.6507 -52.9522
4 28.5128 20.3663 -50.2368
4 31.2282 17.6507 -50.2368
4 31.2282 20.3663 -52.9522
4 32.586 16.293 -54.31
4 32.586 19.0085 -51.5945
4 35.3015 16.293 -51.5945
4 35.3015 19.0085 -54.31
4 33.9438 17.6507 -52.9522
4 33.9438 20.3663 -50.2368
4 36.6593 17.6507 -50.2368
4 36.6593 20.3663 -52.9522
4 38.017 16.293 -54.31
4 38.017 19.0085 -51.5945
4 40.7325 16.293 -51.5945
4 40.7325 19.0085 -54.31
4 39.3747 17.6507 -52.9522
4 39.3747 20.3663 -50.2368
4 42.0902 17.6507 -50.2368
4 42.0902 20.3663 -52.9522
4 43.448 16.293 -54.31
4 43.448 19.0085 -51.5945
4 46.1635 16.293 -51.5945
4 46.1635 19.0085 -54.31
4 44.8058 17.6507 -52.9522
4 44.8058 20.3663 -50.2368
4 47.5213 17.6507 -50.2368
4 47.5213 20.3663 -52.9522
4 48.879 16.293 -54.31
4 48.879 19.0085 -51.5945
4 51.5945 16.293 -51.5945
4 51.5945 19.0085 -54.31
4 50.2368 17.6507 -52.9522
4 50.2368 20.3663 -50.2368
4 52.9522 17.6507 -50.2368
4 52.9522 20.3663 -52.9522
4 0 21.724 -54.31
4 0 24.4395 -51.5945
4 2.7155 21.724 -51.5945
4 2.7155 24.4395 -54.31
4 1.35775 23.0817 -52.9522
4 1.35775 25.7973 -50.2368
4 4.07325 23.0817 -50.2368
4 4.07325 25.7973 -52.9522
4 5.431 21.724 -54.31
4 5.431 24.4395 -51.5945
4 8.1465 21.724 -51.5945
4 8.1465 24.4395 -54.31
4 6.78875 23.0817 -52.9522
4 6.78875 25.7973 -50.2368
4 9.50425 23.0817 -50.2368
4 9.50425 25.7973 -52.9522
4 10.862 21.724 -54.31
4 10.862 24.4395 -51.5945
4 13.5775 21.724 -51.5945
4 13.5775 24.4395 -54.31
4 12.2197 23.0817 -52.9522
4 12.2197 25.7973 -50.2368
4 14.9352 23.0817 -50.2368
4 14.9352 25.7973 -52.9522
4 16.293 21.724 -54.31
4 16.293 24.4395 -51.5945
4 19.0085 21.724 -51.5945
4 19.0085 24.4395 -54.31
4 17.6507 23.0817 -52.9522
4 17.6507 25.7973 -50.2368
4 20.3663 23.0817 -50.2368
4 20.3663 25.7973 -52.9522
4 21.724 21.724 -54.31
4 21.724 24.4395 -51.5945
4 24.4395 21.724 -51.5945
4 24.4395 24.4395 -54.31
4 23.0817 23.0817 -52.9522
4 23.0817 25.7973 -50.2368
4 25.7973 23.0817 -50.2368
4 25.7973 25.7973 -52.9522
4 27.155 21.724 -54.31
4 27.155 24.4395 -51.5945
4 29.8705 21.724 -51.5945
4 29.8705 24.4395 -54.31
4 28.5128 23.0817 -52.9522
4 28.5128 25.7973 -50.2368
4 31.2282 23.0817 -50.2368
4 31.2282 25.7973 -52.9522
4 32.586 21.724 -54.31
4 32.586 24.4395 -51.5945
4 35.3015 21.724 -51.5945
4 35.3015 24.4395 -54.31
4 33.9438 23.0817 -52.9522
4 33.9438 25.7973 -50.2368
4 36.6593 23.0817 -50.2368
4 36.6593 25.7973 -52.9522
4 38.017 21.724 -54.31
4 38.017 24.4395 -51.5945
4 40.7325 21.724 -51.5945
4 40.7325 24.4395 -54.31
4 39.3747 23.0817 -52.9522
4 39.3747 25.7973 -50.2368
4 42.0902 23.0817 -50.2368
4 42.0902 25.7973 -52.9522
4 43.448 21.724 -54.31
4 43.448 24.4395 -51.5945
4 46.1635 21.724 -51.5945
4 46.1635 24.4395 -54.31
4 44.8058 23.0817 -52.9522
4 44.8058 25.7973 -50.2368
4 47.5213 23.0817 -50.2368
4 47.5213 25.7973 -52.9522
4 48.879 21.724 -54.31
4 48.879 24.4395 -51.5945
4 51.5945 21.724 -51.5945
4 51.5945 24.4395 -54.31
4 50.2368 23.0817 -52.9522
4 50.2368 25.7973 -50.2368
4 52.9522 23.0817 -50.2368
4 52.9522 25.7973 -52.9522
4 0 27.155 -54.31
4 0 29.8705 -51.5945
4 2.7155 27.155 -51.5945
4 2.7155 29.8705 -54.31
4 1.35775 28.5128 -52.9522
4 1.35775 31.2282 -50.2368
4 4.07325 28.5128 -50.2368
4 4.07325 31.2282 -52.9522
4 5.431 27.155 -54.31
4 5.431 29.8705 -51.5945
4 8.1465 27.155 -51.5945
4 8.1465 29.8705 -54.31
4 6.78875 28.5128 -52.9522
4 6.78875 31.2282 -50.2368
4 9.50425 28.5128 -50.2368
4 9.50425 31.2282 -52.9522
4 10.862 27.155 -54.31
4 10.862 29.8705 -51.5945
4 13.5775 27.155 -51.5945
4 13.5775 29.8705 -54.31
4 12.2197 28.5128 -52.9522
4 12.2197 31.2282 -50.2368
4 14.9352 28.5128 -50.2368
4 14.9352 31.2282 -52.9522
4 16.293 27.155 -54.31
4 16.293 29.8705 -51.5945
4 19.0085 27.155 -51.5945
4 19.0085 29.8705 -54.31
4 17.6507 28.5128 -52.9522
4 17.6507 31.2282 -50.2368
4 20.3663 28.5128 -50.2368
4 20.3663 31.2282 -52.9522
4 21.724 27.155 -54.31
4 21.724 29.8705 -51.5945
4 24.4395 27.155 -51.5945
4 24.4395 29.8705 -54.31
4 23.0817 28.5128 -52.9522
4 23.0817 31.2282 -50.2368
4 25.7973 28.5128 -50.2368
4 25.7973 31.2282 -52.9522
4 27.155 27.155 -54.31
4 27.155 29.8705 -51.5945
4 29.8705 27.155 -51.5945
4 29.8705 29.8705 -54.31
4 28.5128 28.5128 -52.9522
4 28.5128 31.2282 -50.2368
4 31.2282 28.5128 -50.2368
4 31.2282 31.2282 -52.9522
4 32.586 27.155 -54.31
4 32.586 29.8705 -51.5945
4 35.3015 27.155 -51.5945
4 35.3015 29.8705 -54.31
4 33.9438 28.5128 -52.9522
4 33.9438 31.2282 -50.2368
4 36.6593 28.5128 -50.2368
4 36.6593 31.2282 -52.9522
4 38.017 27.155 -54.31
4 38.017 29.8705 -51.5945
4 40.7325 27.155 -51.5945
4 40.7325 29.8705 -54.31
4 39.3747 28.5128 -52.9522
4 39.3747 31.2282 -50.2368
4 42.0902 28.5128 -50.2368
4 42.0902 31.2282 -52.9522
4 43.448 27.155 -54.31
4 43.448 29.8705 -51.5945
4 46.1635 27.155 -51.5945
4 46.1635 29.8705 -54.31
4 44.8058 28.5128 -52.9522
4 44.8058 31.2282 -50.2368
4 47.5213 28.5128 -50.2368
4 47.5213 31.2282 -52.9522
4 48.879 27.155 -54.31
4 48.879 29.8705 -51.5945
4 51.5945 27.155 -51.5945
4 51.5945 29.8705 -54.31
4 50.2368 28.5128 -52.9522
4 50.2368 31.2282 -50.2368
4 52.9522 28.5128 -50.2368
4 52.9522 31.2282 -52.9522
4 0 32.586 -54.31
4 0 35.3015 -51.5945
4 2.7155 32.586 -51.5945
4 2.7155 35.3015 -54.31
4 1.35775 33.9438 -52.9522
4 1.35775 36.6593 -50.2368
4 4.07325 33.9438 -50.2368
4 4.07325 36.6593 -52.9522
4 5.431 32.586 -54.31
4 5.431 35.3015 -51.5945
4 8.1465 32.586 -51.5945
4 8.1465 35.3015 -54.31
4 6.78875 33.9438 -52.9522
4 6.78875 36.6593 -50.2368
4 9.50425 33.9438 -50.2368
4 9.50425 36.6593 -52.9522
4 10.862 32.586 -54.31
4 10.862 35.3015 -51.5945
4 13.5775 32.586 -51.5945
4 13.5775 35.3015 -54.31
4 12.2197 33.9438 -52.9522
4 12.2197 36.6593 -50.2368
4 14.9352 33.9438 -50.2368
4 14.9352 36.6593 -52.9522
4 16.293 32.586 -54.31
4 16.293 35.3015 -51.5945
4 19.0085 32.586 -51.5945
4 19.0085 35.3015 -54.31
4 17.6507 33.9438 -52.9522
4 17.6507 36.6593 -50.2368
4 20.3663 33.9438 -50.2368
4 20.3663 36.6593 -52.9522
4 21.724 32.586 -54.31
4 21.724 35.3015 -51.5945
4 24.4395 32.586 -51.5945
4 24.4395 35.3015 -54.31
4 23.0817 33.9438 -52.9522
4 23.0817 36.6593 -50.2368
4 25.7973 33.9438 -50.2368
4 25.7973 36.6593 -52.9522
4 27.155 32.586 -54.31
4 27.155 35.3015 -51.5945
4 29.8705 32.586 -51.5945
4 29.8705 35.3015 -54.31
4 28.5128 33.9438 -52.9522
4 28.5128 36.6593 -50.2368
4 31.2282 33.9438 -50.2368
4 31.2282 36.6593 -52.9522
4 32.586 32.586 -54.31
4 32.586 35.3015 -51.5945
4 35.3015 32.586 -51.5945
4 35.3015 35.3015 -54.31
4 33.9438 33.9438 -52.9522
4 33.9438 36.6593 -50.2368
4 36.6593 33.9438 -50.2368
4 36.6593 36.6593 -52.9522
4 38.017 32.586 -54.31
4 38.017 35.3015 -51.5945
4 40.7325 32.586 -51.5945
4 40.7325 35.3015 -54.31
4 39.3747 33.9438 -52.9522
4 39.3747 36.6593 -50.2368
4 42.0902 33.9438 -50.2368
4 42.0902 36.6593 -52.9522
4 43.448 32.586 -54.31
4 43.448 35.3015 -51.5945
4 46.1635 32.586 -51.5945
4 46.1635 35.3015 -54.31
4 44.8058 33.9438 -52.9522
4 44.8058 36.6593 -50.2368
4 47.5213 33.9438 -50.2368
4 47.5213 36.6593 -52.9522
4 48.879 32.586 -54.31
4 48.879 35.3015 -51.5945
4 51.5945 32.586 -51.5945
4 51.5945 35.3015 -54.31
4 50.2368 33.9438 -52.9522
4 50.2368 36.6593 -50.2368
4 52.9522 33.9438 -50.2368
4 52.9522 36.6593 -52.9522
4 0 38.017 -54.31
4 0 40.7325 -51.5945
4 2.7155 38.017 -51.5945
4 2.7155 40.7325 -54.31
4 1.35775 39.3747 -52.9522
4 1.35775 42.0902 -50.2368
4 4.07325 39.3747 -50.2368
4 4.07325 42.0902 -52.9522
4 5.431 38.017 -54.31
4 5.431 40.7325 -51.5945
4 8.1465 38.017 -51.5945
4 8.1465 40.7325 -54.31
4 6.78875 39.3747 -52.9522
4 6.78875 42.0902 -50.2368
4 9.50425 39.3747 -50.2368
4 9.50425 42.0902 -52.9522
4 10.862 38.017 -54.31
4 10.862 40.7325 -51.5945
4 13.5775 38.017 -51.5945
4 13.5775 40.7325 -54.31
4 12.2197 39.3747 -52.9522
4 12.2197 42.0902 -50.2368
4 14.9352 39.3747 -50.2368
4 14.9352 42.0902 -52.9522
4 16.293 38.017 -54.31
4 16.293 40.7325 -51.5945
4 19.0085 38.017 -51.5945
4 19.0085 40.7325 -54.31
4 17.6507 39.3747 -52.9522
4 17.6507 42.0902 -50.2368
4 20.3663 39.3747 -50.2368
4 20.3663 42.0902 -52.9522
4 21.724 38.017 -54.31
4 21.724 40.7325 -51.5945
4 24.4395 38.017 -51.5945
4 24.4395 40.7325 -54.31
4 23.0817 39.3747 -52.9522
4 23.0817 42.0902 -50.2368
4 25.7973 39.3747 -50.2368
4 25.7973 42.0902 -52.9522
4 27.155 38.017 -54.31
4 27.155 40.7325 -51.5945
4 29.8705 38.017 -51.5945
4 29.8705 40.7325 -54.31
4 28.5128 39.3747 -52.9522
4 28.5128 42.0902 -50.2368
4 31.2282 39.3747 -50.2368
4 31.2282 42.0902 -52.9522
4 32.586 38.017 -54.31
4 32.586 40.7325 -51.5945
4 35.3015 38.017 -51.5945
4 35.3015 40.7325 -54.31
4 33.9438 39.3747 -52.9522
4 33.9438 42.0902 -50.2368
4 36.6593 39.3747 -50.2368
4 36.6593 42.0902 -52.9522
4 38.017 38.017 -54.31
4 38.017 40.7325 -51.5945
4 40.7325 38.017 -51.5945
4 40.7325 40.7325 -54.31
4 39.3747 39.3747 -52.9522
4 39.3747 42.0902 -50.2368
4 42.0902 39.3747 -50.2368
4 42.0902 42.0902 -52.9522
4 43.448 38.017 -54.31
4 43.448 40.7325 -51.5945
4 46.1635 38.017 -51.5945
4 46.1635 40.7325 -54.31
4 44.8058 39.3747 -52.9522
4 44.8058 42.0902 -50.2368
4 47.5213 39.3747 -50.2368
4 47.5213 42.0902 -52.9522
4 48.879 38.017 -54.31
4 48.879 40.7325 -51.5945
4 51.5945 38.017 -51.5945
4 51.5945 40.7325 -54.31
4 50.2368 39.3747 -52.9522
4 50.2368 42.0902 -50.2368
4 52.9522 39.3747 -50.2368
4 52.9522 42.0902 -52.9522
4 0 43.448 -54.31
4 0 46.1635 -51.5945
4 2.7155 43.448 -51.5945
4 2.7155 46.1635 -54.31
4 1.35775 44.8058 -52.9522
4 1.35775 47.5213 -50.2368
4 4.07325 44.8058 -50.2368
4 4.07325 47.5213 -52.9522
4 5.431 43.448 -54.31
4 5.431 46.1635 -51.5945
4 8.1465 43.448 -51.5945
4 8.1465 46.1635 -54.31
4 6.78875 44.8058 -52.9522
4 6.78875 47.5213 -50.2368
4 9.50425 44.8058 -50.2368
4 9.50425 47.5213 -52.9522
4 10.862 43.448 -54.31
4 10.862 46.1635 -51.5945
4 13.5775 43.448 -51.5945
4 13.5775 46.1635 -54.31
4 12.2197 44.8058 -52.9522
4 12.2197 47.5213 -50.2368
4 14.9352 44.8058 -50.2368
4 14.9352 47.5213 -52.9522
4 16.293 43.448 -54.31
4 16.293 46.1635 -51.5945
4 19.0085 43.448 -51.5945
4 19.0085 46.1635 -54.31
4 17.6507 44.8058 -52.9522
4 17.6507 47.5213 -50.2368
4 20.3663 44.8058 -50.2368
4 20.3663 47.5213 -52.9522
4 21.724 43.448 -54.31
4 21.724 46.1635 -51.5945
4 24.4395 43.448 -51.5945
4 24.4395 46.1635 -54.31
4 23.0817 44.8058 -52.9522
4 23.0817 47.5213 -50.2368
4 25.7973 44.8058 -50.2368
4 25.7973 47.5213 -52.9522
4 27.155 43.448 -54.31
4 27.155 46.1635 -51.5945
4 29.8705 43.448 -51.5945
4 29.8705 46.1635 -54.31
4 28.5128 44.8058 -52.9522
4 28.5128 47.5213 -50.2368
4 31.2282 44.8058 -50.2368
4 31.2282 47.5213 -52.9522
4 32.586 43.448 -54.31
4 32.586 46.1635 -51.5945
4 35.3015 43.448 -51.5945
4 35.3015 46.1635 -54.31
4 33.9438 44.8058 -52.9522
4 33.9438 47.5213 -50.2368
4 36.6593 44.8058 -50.2368
4 36.6593 47.5213 -52.9522
4 38.017 43.448 -54.31
4 38.017 46.1635 -51.5945
4 40.7325 43.448 -51.5945
4 40.7325 46.1635 -54.31
4 39.3747 44.8058 -52.9522
4 39.3747 47.5213 -50.2368
4 42.0902 44.8058 -50.2368
4 42.0902 47.5213 -52.9522
4 43.448 43.448 -54.31
4 43.448 46.1635 -51.5945
4 46.1635 43.448 -51.5945
4 46.1635 46.1635 -54.31
4 44.8058 44.8058 -52.9522
4 44.8058 47.5213 -50.2368
4 47.5213 44.8058 -50.2368
4 47.5213 47.5213 -52.9522
4 48.879 43.448 -54.31
4 48.879 46.1635 -51.5945
4 51.5945 43.448 -51.5945
4 51.5945 46.1635 -54.31
4 50.2368 44.8058 -52.9522
4 50.2368 47.5213 -50.2368
4 52.9522 44.8058 -50.2368
4 52.9522 47.5213 -52.9522
4 0 48.879 -54.31
4 0 51.5945 -51.5945
4 2.7155 48.879 -51.5945
4 2.7155 51.5945 -54.31
4 1.35775 50.2368 -52.9522
4 1.35775 52.9522 -50.2368
4 4.07325 50.2368 -50.2368
4 4.07325 52.9522 -52.9522
4 5.431 48.879 -54.31
4 5.431 51.5945 -51.5945
4 8.1465 48.879 -51.5945
4 8.1465 51.5945 -54.31
4 6.78875 50.2368 -52.9522
4 6.78875 52.9522 -50.2368
4 9.50425 50.2368 -50.2368
4 9.50425 52.9522 -52.9522
4 10.862 48.879 -54.31
4 10.862 51.5945 -51.5945
4 13.5775 48.879 -51.5945
4 13.5775 51.5945 -54.31
4 12.2197 50.2368 -52.9522
4 12.2197 52.9522 -50.2368
4 14.9352 50.2368 -50.2368
4 14.9352 52.9522 -52.9522
4 16.293 48.879 -54.31
4 16.293 51.5945 -51.5945
4 19.0085 48.879 -51.5945
4 19.0085 51.5945 -54.31
4 17.6507 50.2368 -52.9522
4 17.6507 52.9522 -50.2368
4 20.3663 50.2368 -50.2368
4 20.3663 52.9522 -52.9522
4 21.724 48.879 -54.31
4 21.724 51.5945 -51.5945
4 24.4395 48.879 -51.5945
4 24.4395 51.5945 -54.31
4 23.0817 50.2368 -52.9522
4 23.0817 52.9522 -50.2368
4 25.7973 50.2368 -50.2368
4 25.7973 52.9522 -52.9522
4 27.155 48.879 -54.31
4 27.155 51.5945 -51.5945
4 29.8705 48.879 -51.5945
4 29.8705 51.5945 -54.31
4 28.5128 50.2368 -52.9522
4 28.5128 52.9522 -50.2368
4 31.2282 50.2368 -50.2368
4 31.2282 52.9522 -52.9522
4 32.586 48.879 -54.31
4 32.586 51.5945 -51.5945
4 35.3015 48.879 -51.5945
4 35.3015 51.5945 -54.31
4 33.9438 50.2368 -52.9522
4 33.9438 52.9522 -50.2368
4 36.6593 50.2368 -50.2368
4 36.6593 52.9522 -52.9522
4 38.017 48.879 -54.31
4 38.017 51.5945 -51.5945
4 40.7325 48.879 -51.5945
4 40.7325 51.5945 -54.31
4 39.3747 50.2368 -52.9522
4 39.3747 52.9522 -50.2368
4 42.0902 50.2368 -50.2368
4 42.0902 52.9522 -52.9522
4 43.448 48.879 -54.31
4 43.448 51.5945 -51.5945
4 46.1635 48.879 -51.5945
4 46.1635 51.5945 -54.31
4 44.8058 50.2368 -52.9522
4 44.8058 52.9522 -50.2368
4 47.5213 50.2368 -50.2368
4 47.5213 52.9522 -52.9522
4 48.879 48.879 -54.31
4 48.879 51.5945 -51.5945
4 51.5945 48.879 -51.5945
4 51.5945 51.5945 -54.31
4 50.2368 50.2368 -52.9522
4 50.2368 52.9522 -50.2368
4 52.9522 50.2368 -50.2368
4 52.9522 52.9522 -52.9522
4 0 0 -48.879
3 2.51711 2.60385 -26.9232
4 2.7155 2.7155 -48.879
4 1.35775 1.35775 -47.5213
3 0.763844 5.97062 -26.6859
3 3.76816 4.0833 -25.6552
4 4.07325 4.07325 -47.5213
4 5.431 0 -48.879
3 5.30515 5.32782 -26.9175
3 7.9947 2.62186 -26.9328
4 8.1465 2.7155 -48.879
4 6.78875 1.35775 -47.5213
3 6.63249 6.74112 -25.6013
3 9.30717 4.10419 -25.7061
4 9.50425 4.07325 -47.5213
4 10.862 0 -48.879
3 10.8188 5.33478 -26.9218
3 13.5671 2.66994 -26.9737
4 13.5775 2.7155 -48.879
4 12.2197 1.35775 -47.5213
3 12.0275 6.77342 -25.5801
3 14.8637 4.0158 -25.6341
4 14.9352 4.07325 -47.5213
4 16.293 0 -48.879
3 16.2502 5.41438 -26.9129
1 18.9007 2.67241 -26.827
4 19.0085 2.7155 -48.879
4 17.6507 1.35775 -47.5213
1 17.5578 6.80156 -25.6486
1 20.2976 4.0158 -25.5752
4 20.3663 4.07325 -47.5213
4 21.724 0 -48.879
1 21.64 5.42758 -26.8888
1 24.4195 2.74376 -26.8699
4 24.4395 2.7155 -48.879
4 23.0817 1.35775 -47.5213
1 23.0059 6.8631 -25.6053
1 25.7548 4.14647 -25.6735
4 25.7973 4.07325 -47.5213
4 27.155 0 -48.879
1 27.1938 5.42905 -27.0427
1 29.8746 2.741 -26.913
4 29.8705 2.7155 -48.879
4 28.5128 1.35775 -47.5213
1 28.4708 6.76841 -25.6372
1 31.2433 4.07312 -25.561
4 31.2282 4.07325 -47.5213
4 32.586 0 -48.879
1 32.6071 5.37918 -26.8521
1 35.2744 2.6861 -26.9198
4 35.3015 2.7155 -48.879
4 33.9438 1.35775 -47.5213
1 33.9114 6.86182 -25.5345
1 36.6602 4.1205 -25.6843
4 36.6593 4.07325 -47.5213
4 38.017 0 -48.879
1 38.092 5.46259 -26.9509
1 40.7988 2.74808 -26.9225
4 40.7325 2.7155 -48.879
4 39.3747 1.35775 -47.5213
1 39.45 6.83883 -25.6858
1 42.2053 4.08461 -25.5792
4 42.0902 4.07325 -47.5213
4 43.448 0 -48.879
1 43.5138 5.44755 -26.9309
1 46.3496 2.77493 -26.9012
4 46.1635 2.7155 -48.879
4 44.8058 1.35775 -47.5213
1 45.1009 6.8227 -25.7425
1 47.9092 4.13031 -25.7084
4 47.5213 4.07325 -47.5213
4 48.879 0 -48.879
1 49.1571 5.58418 -26.9458
1 51.8126 2.91643 -26.9776
4 51.5945 2.7155 -48.879
4 50.2368 1.35775 -47.5213
1 50.6988 6.93029 -25.8385
1 53.4981 3.86414 -25.5961
4 52.9522 4.07325 -47.5213
4 0 5.431 -48.879
3 2.37044 7.81007 -26.877
4 2.7155 8.1465 -48.879
4 1.35775 6.78875 -47.5213
3 0.850459 11.3411 -26.4758
3 3.55329 9.37641 -25.7625
4 4.07325 9.50425 -47.5213
4 5.431 5.431 -48.879
3 5.20045 10.7164 -26.8622
3 8.10147 8.07493 -26.8317
4 8.1465 8.1465 -48.879
4 6.78875 6.78875 -47.5213
3 6.49301 12.1341 -25.6735
3 9.42103 9.53597 -25.5407
4 9.50425 9.50425 -47.5213
4 10.862 5.431 -48.879
3 10.7973 10.8498 -26.9229
3 13.4694 8.04114 -26.8213
4 13.5775 8.1465 -48.879
4 12.2197 6.78875 -47.5213
3 12.1773 12.2087 -25.6738
3 14.7732 9.45724 -25.5921
4 14.9352 9.50425 -47.5213
4 16.293 5.431 -48.879
3 16.194 10.8081 -26.8423
1 18.9851 8.09711 -26.9236
4 19.0085 8.1465 -48.879
4 17.6507 6.78875 -47.5213
1 17.5949 12.1977 -25.6018
1 20.3008 9.48081 -25.6109
4 20.3663 9.50425 -47.5213
4 21.724 5.431 -48.879
1 21.6597 10.7756 -26.8818
1 24.488 8.18954 -26.9168
4 24.4395 8.1465 -48.879
4 23.0817 6.78875 -47.5213
1 22.985 12.1758 -25.579
1 25.7981 9.54627 -25.601
4 25.7973 9.50425 -47.5213
4 27.155 5.431 -48.879
1 27.1965 10.8952 -26.8985
1 29.8677 8.15172 -26.9117
4 29.8705 8.1465 -48.879
4 28.5128 6.78875 -47.5213
1 28.4749 12.2068 -25.5749
1 31.2399 9.50635 -25.6367
4 31.2282 9.50425 -47.5213
4 32.586 5.431 -48.879
1 32.5552 10.8321 -26.9179
1 35.2628 8.10428 -26.9298
4 35.3015 8.1465 -48.879
4 33.9438 6.78875 -47.5213
1 33.9686 12.211 -25.5618
1 36.6903 9.4613 -25.6592
4 36.6593 9.50425 -47.5213
4 38.017 5.431 -48.879
1 38.0605 10.865 -26.95
1 40.7364 8.199 -26.9499
4 40.7325 8.1465 -48.879
4 39.3747 6.78875 -47.5213
1 39.4242 12.2319 -25.7109
1 42.2328 9.51527 -25.7037
4 42.0902 9.50425 -47.5213
4 43.448 5.431 -48.879
1 43.5417 10.9709 -26.9392
1 46.3298 8.27646 -26.8945
4 46.1635 8.1465 -48.879
4 44.8058 6.78875 -47.5213
1 44.973 12.3118 -25.6741
1 47.8523 9.68268 -25.6775
4 47.5213 9.50425 -47.5213
4 48.879 5.431 -48.879
1 49.0806 11.0981 -26.9026
1 51.9302 8.54365 -26.9494
4 51.5945 8.1465 -48.879
4 50.2368 6.78875 -47.5213
1 50.6769 12.4185 -25.8432
1 53.4493 10.4391 -26.5291
4 52.9522 9.50425 -47.5213
4 0 10.862 -48.879
3 2.40378 13.32 -26.8918
4 2.7155 13.5775 -48.879
4 1.35775 12.2197 -47.5213
3 0.722181 17.7064 -25.7509
3 3.63776 14.9106 -25.7686
4 4.07325 14.9352 -47.5213
4 5.431 10.862 -48.879
3 5.29271 16.1506 -26.9285
3 8.03954 13.4459 -26.926
4 8.1465 13.5775 -48.879
4 6.78875 12.2197 -47.5213
3 6.61653 17.5606 -25.5752
3 9.36855 14.8515 -25.6221
4 9.50425 14.9352 -47.5213
4 10.862 10.862 -48.879
3 10.7733 16.1577 -26.9583
3 13.5242 13.5324 -26.9397
4 13.5775 13.5775 -48.879
4 12.2197 12.2197 -47.5213
3 12.0733 17.6141 -25.6765
3 14.8718 14.9572 -25.7202
4 14.9352 14.9352 -47.5213
4 16.293 10.862 -48.879
3 16.341 16.3892 -26.8556
1 18.9971 13.5337 -26.8462
4 19.0085 13.5775 -48.879
4 17.6507 12.2197 -47.5213
1 17.6865 17.668 -25.5663
1 20.2866 14.9451 -25.5922
4 20.3663 14.9352 -47.5213
4 21.724 10.862 -48.879
1 21.6809 16.2706 -26.8777
1 24.4137 13.5984 -26.8749
4 24.4395 13.5775 -48.879
4 23.0817 12.2197 -47.5213
1 22.99 17.6247 -25.6114
1 25.8361 14.9628 -25.6163
4 25.7973 14.9352 -47.5213
4 27.155 10.862 -48.879
1 27.2312 16.3041 -26.858
1 29.7973 13.56 -26.9034
4 29.8705 13.5775 -48.879
4 28.5128 12.2197 -47.5213
1 28.489 17.8237 -25.48
1 31.1571 14.9922 -25.6939
4 31.2282 14.9352 -47.5213
4 32.586 10.862 -48.879
1 32.5283 16.3105 -26.881
1 35.3689 13.5825 -26.8599
4 35.3015 13.5775 -48.879
4 33.9438 12.2197 -47.5213
1 34.0012 17.7741 -25.6054
1 36.6632 14.9831 -25.6347
4 36.6593 14.9352 -47.5213
4 38.017 10.862 -48.879
1 38.0742 16.4123 -26.8493
1 40.8036 13.5945 -26.9333
4 40.7325 13.5775 -48.879
4 39.3747 12.2197 -47.5213
1 39.4778 17.7172 -25.5156
1 42.1227 14.9896 -25.554
4 42.0902 14.9352 -47.5213
4 43.448 10.862 -48.879
1 43.5067 16.2763 -26.8382
1 46.3234 13.6689 -27.0497
4 46.1635 13.5775 -48.879
4 44.8058 12.2197 -47.5213
1 44.9834 17.6295 -25.6568
1 47.7636 15.0069 -25.741
4 47.5213 14.9352 -47.5213
4 48.879 10.862 -48.879
1 49.0907 16.5111 -26.8774
1 52.0137 13.9827 -26.9445
4 51.5945 13.5775 -48.879
4 50.2368 12.2197 -47.5213
1 50.6292 17.9642 -25.7848
1 53.4445 15.9051 -26.6559
4 52.9522 14.9352 -47.5213
4 0 16.293 -48.879
3 2.46404 18.7636 -26.9779
4 2.7155 19.0085 -48.879
4 1.35775 17.6507 -47.5213
3 0.893573 22.2265 -26.5817
3 3.77508 20.1941 -25.8114
4 4.07325 20.3663 -47.5213
4 5.431 16.293 -48.879
3 5.2141 21.5466 -26.9544
3 8.01538 18.8656 -26.8693
4 8.1465 19.0085 -48.879
4 6.78875 17.6507 -47.5213
3 6.48861 23.1279 -25.7217
3 9.4012 20.3873 -25.6966
4 9.50425 20.3663 -47.5213
4 10.862 16.293 -48.879
3 10.8171 21.7574 -26.9325
3 13.5396 19.0082 -26.8778
4 13.5775 19.0085 -48.879
4 12.2197 17.6507 -47.5213
3 12.0369 23.0703 -25.5805
3 14.9011 20.4059 -25.6224
4 14.9352 20.3663 -47.5213
4 16.293 16.293 -48.879
3 16.2385 21.6759 -26.9093
1 19.0564 18.9875 -26.8997
4 19.0085 19.0085 -48.879
4 17.6507 17.6507 -47.5213
1 17.558 23.0928 -25.5802
1 20.3955 20.3517 -25.5815
4 20.3663 20.3663 -47.5213
4 21.724 16.293 -48.879
1 21.7576 21.7175 -26.8823
1 24.4377 18.9769 -26.8807
4 24.4395 19.0085 -48.879
4 23.0817 17.6507 -47.5213
1 23.1092 22.9689 -25.5228
1 25.7549 20.4242 -25.5385
4 25.7973 20.3663 -47.5213
4 27.155 16.293 -48.879
1 27.1079 21.7205 -26.8297
1 29.9379 19.0694 -26.8975
4 29.8705 19.0085 -48.879
4 28.5128 17.6507 -47.5213
1 28.4798 23.0986 -25.5551
1 31.2026 20.4982 -25.6447
4 31.2282 20.3663 -47.5213
4 32.586 16.293 -48.879
1 32.6237 21.7194 -26.9324
1 35.3758 19.064 -26.9124
4 35.3015 19.0085 -48.879
4 33.9438 17.6507 -47.5213
1 33.9023 23.1915 -25.5698
1 36.7198 20.4208 -25.6161
4 36.6593 20.3663 -47.5213
4 38.017 16.293 -48.879
1 38.0697 21.6708 -26.928
1 40.7127 19.0561 -26.9266
4 40.7325 19.0085 -48.879
4 39.3747 17.6507 -47.5213
1 39.3555 23.0632 -25.6014
1 42.1611 20.3121 -25.6518
4 42.0902 20.3663 -47.5213
4 43.448 16.293 -48.879
1 43.482 21.775 -26.8792
1 46.3191 19.1268 -26.8548
4 46.1635 19.0085 -48.879
4 44.8058 17.6507 -47.5213
1 45.0374 23.0886 -25.767
1 47.8117 20.4769 -25.7696
4 47.5213 20.3663 -47.5213
4 48.879 16.293 -48.879
1 49.0795 22.0036 -26.9479
1 51.8824 19.3956 -27.056
4 51.5945 19.0085 -48.879
4 50.2368 17.6507 -47.5213
1 50.6103 23.3095 -25.8106
1 53.3492 21.3601 -26.4837
4 52.9522 20.3663 -47.5213
4 0 21.724 -48.879
3 2.33788 24.0877 -27.0034
4 2.7155 24.4395 -48.879
4 1.35775 23.0817 -47.5213
3 0.643392 28.9743 -25.7167
3 3.47874 25.7864 -25.8209
4 4.07325 25.7973 -47.5213
4 5.431 21.724 -48.879
3 5.25475 26.9571 -26.8501
3 8.05226 24.385 -26.9433
4 8.1465 24.4395 -48.879
4 6.78875 23.0817 -47.5213
3 6.49382 28.546 -25.7952
3 9.18806 25.8948 -25.6526
4 9.50425 25.7973 -47.5213
4 10.862 21.724 -48.879
3 10.8101 27.1191 -26.8877
3 13.5419 24.3969 -26.8183
4 13.5775 24.4395 -48.879
4 12.2197 23.0817 -47.5213
3 12.1072 28.5598 -25.5971
3 14.8806 25.7605 -25.5229
4 14.9352 25.7973 -47.5213
4 16.293 21.724 -48.879
3 16.3096 27.159 -26.8495
1 19.0575 24.5003 -26.8127
4 19.0085 24.4395 -48.879
4 17.6507 23.0817 -47.5213
1 17.5881 28.4879 -25.4988
1 20.3592 25.8384 -25.5049
4 20.3663 25.7973 -47.5213
4 21.724 21.724 -48.879
1 21.7606 27.1572 -26.8187
1 24.4078 24.4212 -26.8245
4 24.4395 24.4395 -48.879
4 23.0817 23.0817 -47.5213
1 23.0651 28.5698 -25.521
1 25.7761 25.8464 -25.4507
4 25.7973 25.7973 -47.5213
4 27.155 21.724 -48.879
1 27.2628 27.1842 -26.7888
1 29.8217 24.4114 -26.9038
4 29.8705 24.4395 -48.879
4 28.5128 23.0817 -47.5213
1 28.527 28.5699 -25.3811
1 31.1447 25.8295 -25.5481
4 31.2282 25.7973 -47.5213
4 32.586 21.724 -48.879