15161
 Atoms. Timestep: 85000
4 0 0 -54.31
4 0 2.7155 -51.5945
4 2.7155 0 -51.5945
4 2.7155 2.7155 -54.31
4 1.35775 1.35775 -52.9522
4 1.35775 4.07325 -50.2368
4 4.07325 1.35775 -50.2368
4 4.07325 4.07325 -52.9522
4 5.431 0 -54.31
4 5.431 2.7155 -51.5945
4 8.1465 0 -51.5945
4 8.1465 2.7155 -54.31
4 6.78875 1.35775 -52.9522
4 6.78875 4.07325 -50.2368
4 9.50425 1.35775 -50.2368
4 9.50425 4.07325 -52.9522
4 10.862 0 -54.31
4 10.862 2.7155 -51.5945
4 13.5775 0 -51.5945
4 13.5775 2.7155 -54.31
4 12.2197 1.35775 -52.9522
4 12.2197 4.07325 -50.2368
4 14.9352 1.35775 -50.2368
4 14.9352 4.07325 -52.9522
4 16.293 0 -54.31
4 16.293 2.7155 -51.5945
4 19.0085 0 -51.5945
4 19.0085 2.7155 -54.31
4 17.6507 1.35775 -52.9522
4 17.6507 4.07325 -50.2368
4 20.3663 1.35775 -50.2368
4 20.3663 4.07325 -52.9522
4 21.724 0 -54.31
4 21.724 2.7155 -51.5945
4 24.4395 0 -51.5945
4 24.4395 2.7155 -54.31
4 23.0817 1.35775 -52.9522
4 23.0817 4.07325 -50.2368
4 25.7973 1.35775 -50.2368
4 25.7973 4.07325 -52.9522
4 27.155 0 -54.31
4 27.155 2.7155 -51.5945
4 29.8705 0 -51.5945
4 29.8705 2.7155 -54.31
4 28.5128 1.35775 -52.9522
4 28.5128 4.07325 -50.2368
4 31.2282 1.35775 -50.2368
4 31.2282 4.07325 -52.9522
4 32.586 0 -54.31
4 32.586 2.7155 -51.5945
4 35.3015 0 -51.5945
4 35.3015 2.7155 -54.31
4 33.9438 1.35775 -52.9522
4 33.9438 4.07325 -50.2368
4 36.6593 1.35775 -50.2368
4 36.6593 4.07325 -52.9522
4 38.017 0 -54.31
4 38.017 2.7155 -51.5945
4 40.7325 0 -51.5945
4 40.7325 2.7155 -54.31
4 39.3747 1.35775 -52.9522
4 39.3747 4.07325 -50.2368
4 42.0902 1.35775 -50.2368
4 42.0902 4.07325 -52.9522
4 43.448 0 -54.31
4 43.448 2.7155 -51.5945
4 46.1635 0 -51.5945
4 46.1635 2.7155 -54.31
4 44.8058 1.35775 -52.9522
4 44.8058 4.07325 -50.2368
4 47.5213 1.35775 -50.2368
4 47.5213 4.07325 -52.9522
4 48.879 0 -54.31
4 48.879 2.7155 -51.5945
4 51.5945 0 -51.5945
4 51.5945 2.7155 -54.31
4 50.2368 1.35775 -52.9522
4 50.2368 4.07325 -50.2368
4 52.9522 1.35775 -50.2368
4 52.9522 4.07325 -52.9522
4 0 5.431 -54.31
4 0 8.1465 -51.5945
4 2.7155 5.431 -51.5945
4 2.7155 8.1465 -54.31
4 1.35775 6.78875 -52.9522
4 1.35775 9.50425 -50.2368
4 4.07325 6.78875 -50.2368
4 4.07325 9.50425 -52.9522
4 5.431 5.431 -54.31
4 5.431 8.1465 -51.5945
4 8.1465 5.431 -51.5945
4 8.1465 8.1465 -54.31
4 6.78875 6.78875 -52.9522
4 6.78875 9.50425 -50.2368
4 9.50425 6.78875 -50.2368
4 9.50425 9.50425 -52.9522
4 10.862 5.431 -54.31
4 10.862 8.1465 -51.5945
4 13.5775 5.431 -51.5945
4 13.5775 8.1465 -54.31
4 12.2197 6.78875 -52.9522
4 12.2197 9.50425 -50.2368
4 14.9352 6.78875 -50.2368
4 14.9352 9.50425 -52.9522
4 16.293 5.431 -54.31
4 16.293 8.1465 -51.5945
4 19.0085 5.431 -51.5945
4 19.0085 8.1465 -54.31
4 17.6507 6.78875 -52.9522
4 17.6507 9.50425 -50.2368
4 20.3663 6.78875 -50.2368
4 20.3663 9.50425 -52.9522
4 21.724 5.431 -54.31
4 21.724 8.1465 -51.5945
4 24.4395 5.431 -51.5945
4 24.4395 8.1465 -54.31
4 23.0817 6.78875 -52.9522
4 23.0817 9.50425 -50.2368
4 25.7973 6.78875 -50.2368
4 25.7973 9.50425 -52.9522
4 27.155 5.431 -54.31
4 27.155 8.1465 -51.5945
4 29.8705 5.431 -51.5945
4 29.8705 8.1465 -54.31
4 28.5128 6.78875 -52.9522
4 28.5128 9.50425 -50.2368
4 31.2282 6.78875 -50.2368
4 31.2282 9.50425 -52.9522
4 32.586 5.431 -54.31
4 32.586 8.1465 -51.5945
4 35.3015 5.431 -51.5945
4 35.3015 8.1465 -54.31
4 33.9438 6.78875 -52.9522
4 33.9438 9.50425 -50.2368
4 36.6593 6.78875 -50.2368
4 36.6593 9.50425 -52.9522
4 38.017 5.431 -54.31
4 38.017 8.1465 -51.5945
4 40.7325 5.431 -51.5945
4 40.7325 8.1465 -54.31
4 39.3747 6.78875 -52.9522
4 39.3747 9.50425 -50.2368
4 42.0902 6.78875 -50.2368
4 42.0902 9.50425 -52.9522
4 43.448 5.431 -54.31
4 43.448 8.1465 -51.5945
4 46.1635 5.431 -51.5945
4 46.1635 8.1465 -54.31
4 44.8058 6.78875 -52.9522
4 44.8058 9.50425 -50.2368
4 47.5213 6.78875 -50.2368
4 47.5213 9.50425 -52.9522
4 48.879 5.431 -54.31
4 48.879 8.1465 -51.5945
4 51.5945 5.431 -51.5945
4 51.5945 8.1465 -54.31
4 50.2368 6.78875 -52.9522
4 50.2368 9.50425 -50.2368
4 52.9522 6.78875 -50.2368
4 52.9522 9.50425 -52.9522
4 0 10.862 -54.31
4 0 13.5775 -51.5945
4 2.7155 10.862 -51.5945
4 2.7155 13.5775 -54.31
4 1.35775 12.2197 -52.9522
4 1.35775 14.9352 -50.2368
4 4.07325 12.2197 -50.2368
4 4.07325 14.9352 -52.9522
4 5.431 10.862 -54.31
4 5.431 13.5775 -51.5945
4 8.1465 10.862 -51.5945
4 8.1465 13.5775 -54.31
4 6.78875 12.2197 -52.9522
4 6.78875 14.9352 -50.2368
4 9.50425 12.2197 -50.2368
4 9.50425 14.9352 -52.9522
4 10.862 10.862 -54.31
4 10.862 13.5775 -51.5945
4 13.5775 10.862 -51.5945
4 13.5775 13.5775 -54.31
4 12.2197 12.2197 -52.9522
4 12.2197 14.9352 -50.2368
4 14.9352 12.2197 -50.2368
4 14.9352 14.9352 -52.9522
4 16.293 10.862 -54.31
4 16.293 13.5775 -51.5945
4 19.0085 10.862 -51.5945
4 19.0085 13.5775 -54.31
4 17.6507 12.2197 -52.9522
4 17.6507 14.9352 -50.2368
4 20.3663 12.2197 -50.2368
4 20.3663 14.9352 -52.9522
4 21.724 10.862 -54.31
4 21.724 13.5775 -51.5945
4 24.4395 10.862 -51.5945
4 24.4395 13.5775 -54.31
4 23.0817 12.2197 -52.9522
4 23.0817 14.9352 -50.2368
4 25.7973 12.2197 -50.2368
4 25.7973 14.9352 -52.9522
4 27.155 10.862 -54.31
4 27.155 13.5775 -51.5945
4 29.8705 10.862 -51.5945
4 29.8705 13.5775 -54.31
4 28.5128 12.2197 -52.9522
4 28.5128 14.9352 -50.2368
4 31.2282 12.2197 -50.2368
4 31.2282 14.9352 -52.9522
4 32.586 10.862 -54.31
4 32.586 13.5775 -51.5945
4 35.3015 10.862 -51.5945
4 35.3015 13.5775 -54.31
4 33.9438 12.2197 -52.9522
4 33.9438 14.9352 -50.2368
4 36.6593 12.2197 -50.2368
4 36.6593 14.9352 -52.9522
4 38.017 10.862 -54.31
4 38.017 13.5775 -51.5945
4 40.7325 10.862 -51.5945
4 40.7325 13.5775 -54.31
4 39.3747 12.2197 -52.9522
4 39.3747 14.9352 -50.2368
4 42.0902 12.2197 -50.2368
4 42.0902 14.9352 -52.9522
4 43.448 10.862 -54.31
4 43.448 13.5775 -51.5945
4 46.1635 10.862 -51.5945
4 46.1635 13.5775 -54.31
4 44.8058 12.2197 -52.9522
4 44.8058 14.9352 -50.2368
4 47.5213 12.2197 -50.2368
4 47.5213 14.9352 -52.9522
4 48.879 10.862 -54.31
4 48.879 13.5775 -51.5945
4 51.5945 10.862 -51.5945
4 51.5945 13.5775 -54.31
4 50.2368 12.2197 -52.9522
4 50.2368 14.9352 -50.2368
4 52.9522 12.2197 -50.2368
4 52.9522 14.9352 -52.9522
4 0 16.293 -54.31
4 0 19.0085 -51.5945
4 2.7155 16.293 -51.5945
4 2.7155 19.0085 -54.31
4 1.35775 17.6507 -52.9522
4 1.35775 20.3663 -50.2368
4 4.07325 17.6507 -50.2368
4 4.07325 20.3663 -52.9522
4 5.431 16.293 -54.31
4 5.431 19.0085 -51.5945
4 8.1465 16.293 -51.5945
4 8.1465 19.0085 -54.31
4 6.78875 17.6507 -52.9522
4 6.78875 20.3663 -50.2368
4 9.50425 17.6507 -50.2368
4 9.50425 20.3663 -52.9522
4 10.862 16.293 -54.31
4 10.862 19.0085 -51.5945
4 13.5775 16.293 -51.5945
4 13.5775 19.0085 -54.31
4 12.2197 17.6507 -52.9522
4 12.2197 20.3663 -50.2368
4 14.9352 17.6507 -50.2368
4 14.9352 20.3663 -52.9522
4 16.293 16.293 -54.31
4 16.293 19.0085 -51.5945
4 19.0085 16.293 -51.5945
4 19.0085 19.0085 -54.31
4 17.6507 17.6507 -52.9522
4 17.6507 20.3663 -50.2368
4 20.3663 17.6507 -50.2368
4 20.3663 20.3663 -52.9522
4 21.724 16.293 -54.31
4 21.724 19.0085 -51.5945
4 24.4395 16.293 -51.5945
4 24.4395 19.0085 -54.31
4 23.0817 17.6507 -52.9522
4 23.0817 20.3663 -50.2368
4 25.7973 17.6507 -50.2368
4 25.7973 20.3663 -52.9522
4 27.155 16.293 -54.31
4 27.155 19.0085 -51.5945
4 29.8705 16.293 -51.5945
4 29.8705 19.0085 -54.31
4 28.5128 17.6507 -52.9522
4 28.5128 20.3663 -50.2368
4 31.2282 17.6507 -50.2368
4 31.2282 20.3663 -52.9522
4 32.586 16.293 -54.31
4 32.586 19.0085 -51.5945
4 35.3015 16.293 -51.5945
4 35.3015 19.0085 -54.31
4 33.9438 17.6507 -52.9522
4 33.9438 20.3663 -50.2368
4 36.6593 17.6507 -50.2368
4 36.6593 20.3663 -52.9522
4 38.017 16.293 -54.31
4 38.017 19.0085 -51.5945
4 40.7325 16.293 -51.5945
4 40.7325 19.0085 -54.31
4 39.3747 17.6507 -52.9522
4 39.3747 20.3663 -50.2368
4 42.0902 17.6507 -50.2368
4 42.0902 20.3663 -52.9522
4 43.448 16.293 -54.31
4 43.448 19.0085 -51.5945
4 46.1635 16.293 -51.5945
4 46.1635 19.0085 -54.31
4 44.8058 17.6507 -52.9522
4 44.8058 20.3663 -50.2368
4 47.5213 17.6507 -50.2368
4 47.5213 20.3663 -52.9522
4 48.879 16.293 -54.31
4 48.879 19.0085 -51.5945
4 51.5945 16.293 -51.5945
4 51.5945 19.0085 -54.31
4 50.2368 17.6507 -52.9522
4 50.2368 20.3663 -50.2368
4 52.9522 17.6507 -50.2368
4 52.9522 20.3663 -52.9522
4 0 21.724 -54.31
4 0 24.4395 -51.5945
4 2.7155 21.724 -51.5945
4 2.7155 24.4395 -54.31
4 1.35775 23.0817 -52.9522
4 1.35775 25.7973 -50.2368
4 4.07325 23.0817 -50.2368
4 4.07325 25.7973 -52.9522
4 5.431 21.724 -54.31
4 5.431 24.4395 -51.5945
4 8.1465 21.724 -51.5945
4 8.1465 24.4395 -54.31
4 6.78875 23.0817 -52.9522
4 6.78875 25.7973 -50.2368
4 9.50425 23.0817 -50.2368
4 9.50425 25.7973 -52.9522
4 10.862 21.724 -54.31
4 10.862 24.4395 -51.5945
4 13.5775 21.724 -51.5945
4 13.5775 24.4395 -54.31
4 12.2197 23.0817 -52.9522
4 12.2197 25.7973 -50.2368
4 14.9352 23.0817 -50.2368
4 14.9352 25.7973 -52.9522
4 16.293 21.724 -54.31
4 16.293 24.4395 -51.5945
4 19.0085 21.724 -51.5945
4 19.0085 24.4395 -54.31
4 17.6507 23.0817 -52.9522
4 17.6507 25.7973 -50.2368
4 20.3663 23.0817 -50.2368
4 20.3663 25.7973 -52.9522
4 21.724 21.724 -54.31
4 21.724 24.4395 -51.5945
4 24.4395 21.724 -51.5945
4 24.4395 24.4395 -54.31
4 23.0817 23.0817 -52.9522
4 23.0817 25.7973 -50.2368
4 25.7973 23.0817 -50.2368
4 25.7973 25.7973 -52.9522
4 27.155 21.724 -54.31
4 27.155 24.4395 -51.5945
4 29.8705 21.724 -51.5945
4 29.8705 24.4395 -54.31
4 28.5128 23.0817 -52.9522
4 28.5128 25.7973 -50.2368
4 31.2282 23.0817 -50.2368
4 31.2282 25.7973 -52.9522
4 32.586 21.724 -54.31
4 32.586 24.4395 -51.5945
4 35.3015 21.724 -51.5945
4 35.3015 24.4395 -54.31
4 33.9438 23.0817 -52.9522
4 33.9438 25.7973 -50.2368
4 36.6593 23.0817 -50.2368
4 36.6593 25.7973 -52.9522
4 38.017 21.724 -54.31
4 38.017 24.4395 -51.5945
4 40.7325 21.724 -51.5945
4 40.7325 24.4395 -54.31
4 39.3747 23.0817 -52.9522
4 39.3747 25.7973 -50.2368
4 42.0902 23.0817 -50.2368
4 42.0902 25.7973 -52.9522
4 43.448 21.724 -54.31
4 43.448 24.4395 -51.5945
4 46.1635 21.724 -51.5945
4 46.1635 24.4395 -54.31
4 44.8058 23.0817 -52.9522
4 44.8058 25.7973 -50.2368
4 47.5213 23.0817 -50.2368
4 47.5213 25.7973 -52.9522
4 48.879 21.724 -54.31
4 48.879 24.4395 -51.5945
4 51.5945 21.724 -51.5945
4 51.5945 24.4395 -54.31
4 50.2368 23.0817 -52.9522
4 50.2368 25.7973 -50.2368
4 52.9522 23.0817 -50.2368
4 52.9522 25.7973 -52.9522
4 0 27.155 -54.31
4 0 29.8705 -51.5945
4 2.7155 27.155 -51.5945
4 2.7155 29.8705 -54.31
4 1.35775 28.5128 -52.9522
4 1.35775 31.2282 -50.2368
4 4.07325 28.5128 -50.2368
4 4.07325 31.2282 -52.9522
4 5.431 27.155 -54.31
4 5.431 29.8705 -51.5945
4 8.1465 27.155 -51.5945
4 8.1465 29.8705 -54.31
4 6.78875 28.5128 -52.9522
4 6.78875 31.2282 -50.2368
4 9.50425 28.5128 -50.2368
4 9.50425 31.2282 -52.9522
4 10.862 27.155 -54.31
4 10.862 29.8705 -51.5945
4 13.5775 27.155 -51.5945
4 13.5775 29.8705 -54.31
4 12.2197 28.5128 -52.9522
4 12.2197 31.2282 -50.2368
4 14.9352 28.5128 -50.2368
4 14.9352 31.2282 -52.9522
4 16.293 27.155 -54.31
4 16.293 29.8705 -51.5945
4 19.0085 27.155 -51.5945
4 19.0085 29.8705 -54.31
4 17.6507 28.5128 -52.9522
4 17.6507 31.2282 -50.2368
4 20.3663 28.5128 -50.2368
4 20.3663 31.2282 -52.9522
4 21.724 27.155 -54.31
4 21.724 29.8705 -51.5945
4 24.4395 27.155 -51.5945
4 24.4395 29.8705 -54.31
4 23.0817 28.5128 -52.9522
4 23.0817 31.2282 -50.2368
4 25.7973 28.5128 -50.2368
4 25.7973 31.2282 -52.9522
4 27.155 27.155 -54.31
4 27.155 29.8705 -51.5945
4 29.8705 27.155 -51.5945
4 29.8705 29.8705 -54.31
4 28.5128 28.5128 -52.9522
4 28.5128 31.2282 -50.2368
4 31.2282 28.5128 -50.2368
4 31.2282 31.2282 -52.9522
4 32.586 27.155 -54.31
4 32.586 29.8705 -51.5945
4 35.3015 27.155 -51.5945
4 35.3015 29.8705 -54.31
4 33.9438 28.5128 -52.9522
4 33.9438 31.2282 -50.2368
4 36.6593 28.5128 -50.2368
4 36.6593 31.2282 -52.9522
4 38.017 27.155 -54.31
4 38.017 29.8705 -51.5945
4 40.7325 27.155 -51.5945
4 40.7325 29.8705 -54.31
4 39.3747 28.5128 -52.9522
4 39.3747 31.2282 -50.2368
4 42.0902 28.5128 -50.2368
4 42.0902 31.2282 -52.9522
4 43.448 27.155 -54.31
4 43.448 29.8705 -51.5945
4 46.1635 27.155 -51.5945
4 46.1635 29.8705 -54.31
4 44.8058 28.5128 -52.9522
4 44.8058 31.2282 -50.2368
4 47.5213 28.5128 -50.2368
4 47.5213 31.2282 -52.9522
4 48.879 27.155 -54.31
4 48.879 29.8705 -51.5945
4 51.5945 27.155 -51.5945
4 51.5945 29.8705 -54.31
4 50.2368 28.5128 -52.9522
4 50.2368 31.2282 -50.2368
4 52.9522 28.5128 -50.2368
4 52.9522 31.2282 -52.9522
4 0 32.586 -54.31
4 0 35.3015 -51.5945
4 2.7155 32.586 -51.5945
4 2.7155 35.3015 -54.31
4 1.35775 33.9438 -52.9522
4 1.35775 36.6593 -50.2368
4 4.07325 33.9438 -50.2368
4 4.07325 36.6593 -52.9522
4 5.431 32.586 -54.31
4 5.431 35.3015 -51.5945
4 8.1465 32.586 -51.5945
4 8.1465 35.3015 -54.31
4 6.78875 33.9438 -52.9522
4 6.78875 36.6593 -50.2368
4 9.50425 33.9438 -50.2368
4 9.50425 36.6593 -52.9522
4 10.862 32.586 -54.31
4 10.862 35.3015 -51.5945
4 13.5775 32.586 -51.5945
4 13.5775 35.3015 -54.31
4 12.2197 33.9438 -52.9522
4 12.2197 36.6593 -50.2368
4 14.9352 33.9438 -50.2368
4 14.9352 36.6593 -52.9522
4 16.293 32.586 -54.31
4 16.293 35.3015 -51.5945
4 19.0085 32.586 -51.5945
4 19.0085 35.3015 -54.31
4 17.6507 33.9438 -52.9522
4 17.6507 36.6593 -50.2368
4 20.3663 33.9438 -50.2368
4 20.3663 36.6593 -52.9522
4 21.724 32.586 -54.31
4 21.724 35.3015 -51.5945
4 24.4395 32.586 -51.5945
4 24.4395 35.3015 -54.31
4 23.0817 33.9438 -52.9522
4 23.0817 36.6593 -50.2368
4 25.7973 33.9438 -50.2368
4 25.7973 36.6593 -52.9522
4 27.155 32.586 -54.31
4 27.155 35.3015 -51.5945
4 29.8705 32.586 -51.5945
4 29.8705 35.3015 -54.31
4 28.5128 33.9438 -52.9522
4 28.5128 36.6593 -50.2368
4 31.2282 33.9438 -50.2368
4 31.2282 36.6593 -52.9522
4 32.586 32.586 -54.31
4 32.586 35.3015 -51.5945
4 35.3015 32.586 -51.5945
4 35.3015 35.3015 -54.31
4 33.9438 33.9438 -52.9522
4 33.9438 36.6593 -50.2368
4 36.6593 33.9438 -50.2368
4 36.6593 36.6593 -52.9522
4 38.017 32.586 -54.31
4 38.017 35.3015 -51.5945
4 40.7325 32.586 -51.5945
4 40.7325 35.3015 -54.31
4 39.3747 33.9438 -52.9522
4 39.3747 36.6593 -50.2368
4 42.0902 33.9438 -50.2368
4 42.0902 36.6593 -52.9522
4 43.448 32.586 -54.31
4 43.448 35.3015 -51.5945
4 46.1635 32.586 -51.5945
4 46.1635 35.3015 -54.31
4 44.8058 33.9438 -52.9522
4 44.8058 36.6593 -50.2368
4 47.5213 33.9438 -50.2368
4 47.5213 36.6593 -52.9522
4 48.879 32.586 -54.31
4 48.879 35.3015 -51.5945
4 51.5945 32.586 -51.5945
4 51.5945 35.3015 -54.31
4 50.2368 33.9438 -52.9522
4 50.2368 36.6593 -50.2368
4 52.9522 33.9438 -50.2368
4 52.9522 36.6593 -52.9522
4 0 38.017 -54.31
4 0 40.7325 -51.5945
4 2.7155 38.017 -51.5945
4 2.7155 40.7325 -54.31
4 1.35775 39.3747 -52.9522
4 1.35775 42.0902 -50.2368
4 4.07325 39.3747 -50.2368
4 4.07325 42.0902 -52.9522
4 5.431 38.017 -54.31
4 5.431 40.7325 -51.5945
4 8.1465 38.017 -51.5945
4 8.1465 40.7325 -54.31
4 6.78875 39.3747 -52.9522
4 6.78875 42.0902 -50.2368
4 9.50425 39.3747 -50.2368
4 9.50425 42.0902 -52.9522
4 10.862 38.017 -54.31
4 10.862 40.7325 -51.5945
4 13.5775 38.017 -51.5945
4 13.5775 40.7325 -54.31
4 12.2197 39.3747 -52.9522
4 12.2197 42.0902 -50.2368
4 14.9352 39.3747 -50.2368
4 14.9352 42.0902 -52.9522
4 16.293 38.017 -54.31
4 16.293 40.7325 -51.5945
4 19.0085 38.017 -51.5945
4 19.0085 40.7325 -54.31
4 17.6507 39.3747 -52.9522
4 17.6507 42.0902 -50.2368
4 20.3663 39.3747 -50.2368
4 20.3663 42.0902 -52.9522
4 21.724 38.017 -54.31
4 21.724 40.7325 -51.5945
4 24.4395 38.017 -51.5945
4 24.4395 40.7325 -54.31
4 23.0817 39.3747 -52.9522
4 23.0817 42.0902 -50.2368
4 25.7973 39.3747 -50.2368
4 25.7973 42.0902 -52.9522
4 27.155 38.017 -54.31
4 27.155 40.7325 -51.5945
4 29.8705 38.017 -51.5945
4 29.8705 40.7325 -54.31
4 28.5128 39.3747 -52.9522
4 28.5128 42.0902 -50.2368
4 31.2282 39.3747 -50.2368
4 31.2282 42.0902 -52.9522
4 32.586 38.017 -54.31
4 32.586 40.7325 -51.5945
4 35.3015 38.017 -51.5945
4 35.3015 40.7325 -54.31
4 33.9438 39.3747 -52.9522
4 33.9438 42.0902 -50.2368
4 36.6593 39.3747 -50.2368
4 36.6593 42.0902 -52.9522
4 38.017 38.017 -54.31
4 38.017 40.7325 -51.5945
4 40.7325 38.017 -51.5945
4 40.7325 40.7325 -54.31
4 39.3747 39.3747 -52.9522
4 39.3747 42.0902 -50.2368
4 42.0902 39.3747 -50.2368
4 42.0902 42.0902 -52.9522
4 43.448 38.017 -54.31
4 43.448 40.7325 -51.5945
4 46.1635 38.017 -51.5945
4 46.1635 40.7325 -54.31
4 44.8058 39.3747 -52.9522
4 44.8058 42.0902 -50.2368
4 47.5213 39.3747 -50.2368
4 47.5213 42.0902 -52.9522
4 48.879 38.017 -54.31
4 48.879 40.7325 -51.5945
4 51.5945 38.017 -51.5945
4 51.5945 40.7325 -54.31
4 50.2368 39.3747 -52.9522
4 50.2368 42.0902 -50.2368
4 52.9522 39.3747 -50.2368
4 52.9522 42.0902 -52.9522
4 0 43.448 -54.31
4 0 46.1635 -51.5945
4 2.7155 43.448 -51.5945
4 2.7155 46.1635 -54.31
4 1.35775 44.8058 -52.9522
4 1.35775 47.5213 -50.2368
4 4.07325 44.8058 -50.2368
4 4.07325 47.5213 -52.9522
4 5.431 43.448 -54.31
4 5.431 46.1635 -51.5945
4 8.1465 43.448 -51.5945
4 8.1465 46.1635 -54.31
4 6.78875 44.8058 -52.9522
4 6.78875 47.5213 -50.2368
4 9.50425 44.8058 -50.2368
4 9.50425 47.5213 -52.9522
4 10.862 43.448 -54.31
4 10.862 46.1635 -51.5945
4 13.5775 43.448 -51.5945
4 13.5775 46.1635 -54.31
4 12.2197 44.8058 -52.9522
4 12.2197 47.5213 -50.2368
4 14.9352 44.8058 -50.2368
4 14.9352 47.5213 -52.9522
4 16.293 43.448 -54.31
4 16.293 46.1635 -51.5945
4 19.0085 43.448 -51.5945
4 19.0085 46.1635 -54.31
4 17.6507 44.8058 -52.9522
4 17.6507 47.5213 -50.2368
4 20.3663 44.8058 -50.2368
4 20.3663 47.5213 -52.9522
4 21.724 43.448 -54.31
4 21.724 46.1635 -51.5945
4 24.4395 43.448 -51.5945
4 24.4395 46.1635 -54.31
4 23.0817 44.8058 -52.9522
4 23.0817 47.5213 -50.2368
4 25.7973 44.8058 -50.2368
4 25.7973 47.5213 -52.9522
4 27.155 43.448 -54.31
4 27.155 46.1635 -51.5945
4 29.8705 43.448 -51.5945
4 29.8705 46.1635 -54.31
4 28.5128 44.8058 -52.9522
4 28.5128 47.5213 -50.2368
4 31.2282 44.8058 -50.2368
4 31.2282 47.5213 -52.9522
4 32.586 43.448 -54.31
4 32.586 46.1635 -51.5945
4 35.3015 43.448 -51.5945
4 35.3015 46.1635 -54.31
4 33.9438 44.8058 -52.9522
4 33.9438 47.5213 -50.2368
4 36.6593 44.8058 -50.2368
4 36.6593 47.5213 -52.9522
4 38.017 43.448 -54.31
4 38.017 46.1635 -51.5945
4 40.7325 43.448 -51.5945
4 40.7325 46.1635 -54.31
4 39.3747 44.8058 -52.9522
4 39.3747 47.5213 -50.2368
4 42.0902 44.8058 -50.2368
4 42.0902 47.5213 -52.9522
4 43.448 43.448 -54.31
4 43.448 46.1635 -51.5945
4 46.1635 43.448 -51.5945
4 46.1635 46.1635 -54.31
4 44.8058 44.8058 -52.9522
4 44.8058 47.5213 -50.2368
4 47.5213 44.8058 -50.2368
4 47.5213 47.5213 -52.9522
4 48.879 43.448 -54.31
4 48.879 46.1635 -51.5945
4 51.5945 43.448 -51.5945
4 51.5945 46.1635 -54.31
4 50.2368 44.8058 -52.9522
4 50.2368 47.5213 -50.2368
4 52.9522 44.8058 -50.2368
4 52.9522 47.5213 -52.9522
4 0 48.879 -54.31
4 0 51.5945 -51.5945
4 2.7155 48.879 -51.5945
4 2.7155 51.5945 -54.31
4 1.35775 50.2368 -52.9522
4 1.35775 52.9522 -50.2368
4 4.07325 50.2368 -50.2368
4 4.07325 52.9522 -52.9522
4 5.431 48.879 -54.31
4 5.431 51.5945 -51.5945
4 8.1465 48.879 -51.5945
4 8.1465 51.5945 -54.31
4 6.78875 50.2368 -52.9522
4 6.78875 52.9522 -50.2368
4 9.50425 50.2368 -50.2368
4 9.50425 52.9522 -52.9522
4 10.862 48.879 -54.31
4 10.862 51.5945 -51.5945
4 13.5775 48.879 -51.5945
4 13.5775 51.5945 -54.31
4 12.2197 50.2368 -52.9522
4 12.2197 52.9522 -50.2368
4 14.9352 50.2368 -50.2368
4 14.9352 52.9522 -52.9522
4 16.293 48.879 -54.31
4 16.293 51.5945 -51.5945
4 19.0085 48.879 -51.5945
4 19.0085 51.5945 -54.31
4 17.6507 50.2368 -52.9522
4 17.6507 52.9522 -50.2368
4 20.3663 50.2368 -50.2368
4 20.3663 52.9522 -52.9522
4 21.724 48.879 -54.31
4 21.724 51.5945 -51.5945
4 24.4395 48.879 -51.5945
4 24.4395 51.5945 -54.31
4 23.0817 50.2368 -52.9522
4 23.0817 52.9522 -50.2368
4 25.7973 50.2368 -50.2368
4 25.7973 52.9522 -52.9522
4 27.155 48.879 -54.31
4 27.155 51.5945 -51.5945
4 29.8705 48.879 -51.5945
4 29.8705 51.5945 -54.31
4 28.5128 50.2368 -52.9522
4 28.5128 52.9522 -50.2368
4 31.2282 50.2368 -50.2368
4 31.2282 52.9522 -52.9522
4 32.586 48.879 -54.31
4 32.586 51.5945 -51.5945
4 35.3015 48.879 -51.5945
4 35.3015 51.5945 -54.31
4 33.9438 50.2368 -52.9522
4 33.9438 52.9522 -50.2368
4 36.6593 50.2368 -50.2368
4 36.6593 52.9522 -52.9522
4 38.017 48.879 -54.31
4 38.017 51.5945 -51.5945
4 40.7325 48.879 -51.5945
4 40.7325 51.5945 -54.31
4 39.3747 50.2368 -52.9522
4 39.3747 52.9522 -50.2368
4 42.0902 50.2368 -50.2368
4 42.0902 52.9522 -52.9522
4 43.448 48.879 -54.31
4 43.448 51.5945 -51.5945
4 46.1635 48.879 -51.5945
4 46.1635 51.5945 -54.31
4 44.8058 50.2368 -52.9522
4 44.8058 52.9522 -50.2368
4 47.5213 50.2368 -50.2368
4 47.5213 52.9522 -52.9522
4 48.879 48.879 -54.31
4 48.879 51.5945 -51.5945
4 51.5945 48.879 -51.5945
4 51.5945 51.5945 -54.31
4 50.2368 50.2368 -52.9522
4 50.2368 52.9522 -50.2368
4 52.9522 50.2368 -50.2368
4 52.9522 52.9522 -52.9522
4 0 0 -48.879
3 2.4569 2.57185 -33.1639
4 2.7155 2.7155 -48.879
4 1.35775 1.35775 -47.5213
3 0.9705 6.5282 -32.3982
3 3.85639 3.95981 -31.9169
4 4.07325 4.07325 -47.5213
4 5.431 0 -48.879
3 5.37438 5.32179 -33.058
3 8.1054 2.63681 -33.1606
4 8.1465 2.7155 -48.879
4 6.78875 1.35775 -47.5213
3 6.68553 6.70795 -31.7716
3 9.31984 4.0835 -31.8161
4 9.50425 4.07325 -47.5213
4 10.862 0 -48.879
3 10.8168 5.36748 -33.0537
3 13.4919 2.65082 -33.1881
4 13.5775 2.7155 -48.879
4 12.2197 1.35775 -47.5213
3 12.095 6.81117 -31.8473
3 14.8376 4.01901 -31.9104
4 14.9352 4.07325 -47.5213
4 16.293 0 -48.879
3 16.2728 5.51096 -33.0941
1 19.0052 2.71829 -33.0751
4 19.0085 2.7155 -48.879
4 17.6507 1.35775 -47.5213
1 17.6409 6.82006 -31.7285
1 20.3303 4.15728 -31.7849
4 20.3663 4.07325 -47.5213
4 21.724 0 -48.879
1 21.7334 5.44105 -33.0908
1 24.3493 2.66415 -33.1679
4 24.4395 2.7155 -48.879
4 23.0817 1.35775 -47.5213
1 23.0593 6.8396 -31.7576
1 25.6953 4.06035 -31.8561
4 25.7973 4.07325 -47.5213
4 27.155 0 -48.879
1 27.0564 5.39438 -33.2111
1 29.8995 2.6934 -33.1494
4 29.8705 2.7155 -48.879
4 28.5128 1.35775 -47.5213
1 28.3871 6.79042 -31.8395
1 31.2185 4.00741 -31.7981
4 31.2282 4.07325 -47.5213
4 32.586 0 -48.879
1 32.551 5.39612 -33.1198
1 35.3498 2.77807 -33.1666
4 35.3015 2.7155 -48.879
4 33.9438 1.35775 -47.5213
1 33.8983 6.79879 -31.7368
1 36.6324 4.10883 -31.775
4 36.6593 4.07325 -47.5213
4 38.017 0 -48.879
1 38.0251 5.46724 -33.0822
1 40.7564 2.71227 -33.0505
4 40.7325 2.7155 -48.879
4 39.3747 1.35775 -47.5213
1 39.4627 6.80445 -31.8513
1 42.1959 4.05001 -31.7621
4 42.0902 4.07325 -47.5213
4 43.448 0 -48.879
1 43.543 5.45704 -33.1069
1 46.27 2.79095 -33.05
4 46.1635 2.7155 -48.879
4 44.8058 1.35775 -47.5213
1 44.9196 6.80941 -31.8353
1 47.7752 4.06408 -31.7754
4 47.5213 4.07325 -47.5213
4 48.879 0 -48.879
1 49.0229 5.45743 -33.0618
1 51.6883 2.71052 -33.1483
4 51.5945 2.7155 -48.879
4 50.2368 1.35775 -47.5213
1 50.4511 6.79153 -31.8324
1 53.1431 4.18853 -32.2274
4 52.9522 4.07325 -47.5213
4 0 5.431 -48.879
3 2.52981 8.0277 -33.1349
4 2.7155 8.1465 -48.879
4 1.35775 6.78875 -47.5213
3 1.09143 11.4753 -32.8168
3 3.80644 9.35004 -31.7514
4 4.07325 9.50425 -47.5213
4 5.431 5.431 -48.879
3 5.21272 10.6684 -33.0759
3 8.0413 8.11788 -33.0891
4 8.1465 8.1465 -48.879
4 6.78875 6.78875 -47.5213
3 6.45483 12.1016 -31.7957
3 9.38555 9.46554 -31.6926
4 9.50425 9.50425 -47.5213
4 10.862 5.431 -48.879
3 10.8217 10.7652 -33.0413
3 13.5617 8.03698 -33.1564
4 13.5775 8.1465 -48.879
4 12.2197 6.78875 -47.5213
3 12.1244 12.2166 -31.6419
3 14.821 9.47994 -31.8653
4 14.9352 9.50425 -47.5213
4 16.293 5.431 -48.879
3 16.282 10.8802 -33.081
1 19.0571 8.15437 -33.0514
4 19.0085 8.1465 -48.879
4 17.6507 6.78875 -47.5213
1 17.5361 12.2634 -31.8351
1 20.2442 9.52576 -31.5799
4 20.3663 9.50425 -47.5213
4 21.724 5.431 -48.879
1 21.5813 10.8198 -32.9287
1 24.4336 8.08085 -33.11
4 24.4395 8.1465 -48.879
4 23.0817 6.78875 -47.5213
1 23.0018 12.2485 -31.7397
1 25.7393 9.50349 -31.7372
4 25.7973 9.50425 -47.5213
4 27.155 5.431 -48.879
1 27.1115 10.8632 -33.0744
1 29.8564 8.15393 -33.1169
4 29.8705 8.1465 -48.879
4 28.5128 6.78875 -47.5213
1 28.412 12.2227 -31.7668
1 31.134 9.51643 -31.686
4 31.2282 9.50425 -47.5213
4 32.586 5.431 -48.879
1 32.4842 10.8607 -33.0831
1 35.2998 8.23568 -33.1088
4 35.3015 8.1465 -48.879
4 33.9438 6.78875 -47.5213
1 33.8617 12.1947 -31.8214
1 36.7014 9.49002 -31.8698
4 36.6593 9.50425 -47.5213
4 38.017 5.431 -48.879
1 38.0164 10.9082 -33.1081
1 40.8536 8.23721 -33.1129
4 40.7325 8.1465 -48.879
4 39.3747 6.78875 -47.5213
1 39.3374 12.196 -31.8178
1 42.2406 9.58251 -31.7628
4 42.0902 9.50425 -47.5213
4 43.448 5.431 -48.879
1 43.5823 10.9212 -33.1175
1 46.2611 8.23419 -33.0874
4 46.1635 8.1465 -48.879
4 44.8058 6.78875 -47.5213
1 45.0278 12.209 -31.739
1 47.7008 9.50694 -31.7887
4 47.5213 9.50425 -47.5213
4 48.879 5.431 -48.879
1 48.9973 11.0018 -33.0183
1 51.7108 8.22329 -33.2012
4 51.5945 8.1465 -48.879
4 50.2368 6.78875 -47.5213
1 50.5228 12.2916 -31.8833
1 53.3124 9.54845 -31.9363
4 52.9522 9.50425 -47.5213
4 0 10.862 -48.879
3 2.54416 13.4305 -33.2938
4 2.7155 13.5775 -48.879
4 1.35775 12.2197 -47.5213
3 0.925316 17.992 -31.796
3 3.69504 14.848 -31.7998
4 4.07325 14.9352 -47.5213
4 5.431 10.862 -48.879
3 5.20507 16.19 -33.0536
3 7.91583 13.5048 -33.0993
4 8.1465 13.5775 -48.879
4 6.78875 12.2197 -47.5213
3 6.49979 17.6304 -31.8204
3 9.29994 14.9272 -31.9023
4 9.50425 14.9352 -47.5213
4 10.862 10.862 -48.879
3 10.8373 16.2583 -33.1618
3 13.5305 13.5799 -33.1134
4 13.5775 13.5775 -48.879
4 12.2197 12.2197 -47.5213
3 12.1003 17.6709 -31.8733
3 14.7913 14.889 -31.8132
4 14.9352 14.9352 -47.5213
4 16.293 10.862 -48.879
3 16.238 16.2756 -33.0824
1 18.9835 13.5905 -33.0867
4 19.0085 13.5775 -48.879
4 17.6507 12.2197 -47.5213
1 17.6317 17.6649 -31.676
1 20.2571 14.9987 -31.7487
4 20.3663 14.9352 -47.5213
4 21.724 10.862 -48.879
1 21.6853 16.3249 -33.1186
1 24.3995 13.574 -33.1376
4 24.4395 13.5775 -48.879
4 23.0817 12.2197 -47.5213
1 23.0043 17.6471 -31.7369
1 25.6901 14.9996 -31.749
4 25.7973 14.9352 -47.5213
4 27.155 10.862 -48.879
1 27.1603 16.2829 -33.1306
1 29.8791 13.5819 -33.1373
4 29.8705 13.5775 -48.879
4 28.5128 12.2197 -47.5213
1 28.547 17.6312 -31.8318
1 31.1124 14.9703 -31.7877
4 31.2282 14.9352 -47.5213
4 32.586 10.862 -48.879
1 32.5841 16.2558 -33.1158
1 35.2088 13.5855 -33.068
4 35.3015 13.5775 -48.879
4 33.9438 12.2197 -47.5213
1 33.9544 17.6537 -31.7934
1 36.6108 14.9723 -31.7675
4 36.6593 14.9352 -47.5213
4 38.017 10.862 -48.879
1 37.9626 16.3696 -33.139
1 40.7716 13.6972 -33.0921
4 40.7325 13.5775 -48.879
4 39.3747 12.2197 -47.5213
1 39.4113 17.5943 -31.7243
1 42.3089 14.9237 -31.8151
4 42.0902 14.9352 -47.5213
4 43.448 10.862 -48.879
1 43.5065 16.352 -33.1672
1 46.3574 13.5712 -33.0151
4 46.1635 13.5775 -48.879
4 44.8058 12.2197 -47.5213
1 44.8981 17.6611 -31.8641
1 47.7544 14.9939 -31.8635
4 47.5213 14.9352 -47.5213
4 48.879 10.862 -48.879
1 49.0328 16.4513 -33.1478
1 51.7635 13.7174 -33.0913
4 51.5945 13.5775 -48.879
4 50.2368 12.2197 -47.5213
1 50.5395 17.7147 -31.936
1 53.2929 15.2493 -32.1451
4 52.9522 14.9352 -47.5213
4 0 16.293 -48.879
3 2.5452 18.8392 -33.233
4 2.7155 19.0085 -48.879
4 1.35775 17.6507 -47.5213
3 0.858473 22.1684 -32.8027
3 3.80101 20.3152 -31.9635
4 4.07325 20.3663 -47.5213
4 5.431 16.293 -48.879
3 5.35625 21.603 -33.1931
3 8.06802 18.8813 -33.1354
4 8.1465 19.0085 -48.879
4 6.78875 17.6507 -47.5213
3 6.56622 22.9037 -31.7748
3 9.27268 20.3806 -31.9594
4 9.50425 20.3663 -47.5213
4 10.862 16.293 -48.879
3 10.8343 21.6357 -33.1967
3 13.564 19.0751 -33.1276
4 13.5775 19.0085 -48.879
4 12.2197 17.6507 -47.5213
3 12.0933 23.104 -31.7897
3 14.9327 20.5158 -31.8016
4 14.9352 20.3663 -47.5213
4 16.293 16.293 -48.879
3 16.3194 21.731 -33.1529
1 18.9953 18.9456 -32.9861
4 19.0085 19.0085 -48.879
4 17.6507 17.6507 -47.5213
1 17.5828 23.0362 -31.7153
1 20.3794 20.3831 -31.7476
4 20.3663 20.3663 -47.5213
4 21.724 16.293 -48.879
1 21.7422 21.7342 -33.0488
1 24.4006 19.0052 -32.9921
4 24.4395 19.0085 -48.879
4 23.0817 17.6507 -47.5213
1 23.056 23.1246 -31.76
1 25.8346 20.3779 -31.7753
4 25.7973 20.3663 -47.5213
4 27.155 16.293 -48.879
1 27.1577 21.7197 -33.1368
1 29.9301 19.0685 -33.1415
4 29.8705 19.0085 -48.879
4 28.5128 17.6507 -47.5213
1 28.4619 23.097 -31.7527
1 31.2946 20.43 -31.8242
4 31.2282 20.3663 -47.5213
4 32.586 16.293 -48.879
1 32.6066 21.7782 -33.1305
1 35.3151 18.9602 -33.0917
4 35.3015 19.0085 -48.879
4 33.9438 17.6507 -47.5213
1 33.9097 23.1021 -31.7302
1 36.7183 20.3381 -31.7739
4 36.6593 20.3663 -47.5213
4 38.017 16.293 -48.879
1 38.0426 21.7395 -33.1321
1 40.742 18.9929 -33.1455
4 40.7325 19.0085 -48.879
4 39.3747 17.6507 -47.5213
1 39.4389 23.0864 -31.8265
1 42.1226 20.3675 -31.8654
4 42.0902 20.3663 -47.5213
4 43.448 16.293 -48.879
1 43.4598 21.7688 -33.0991
1 46.2646 19.1252 -33.1391
4 46.1635 19.0085 -48.879
4 44.8058 17.6507 -47.5213
1 44.874 23.0467 -31.8306
1 47.6913 20.4236 -31.8811
4 47.5213 20.3663 -47.5213
4 48.879 16.293 -48.879
1 48.962 21.7616 -33.1655
1 51.8913 19.1786 -33.1425
4 51.5945 19.0085 -48.879
4 50.2368 17.6507 -47.5213
1 50.4043 23.1034 -31.8796
1 53.3334 20.4963 -31.8895
4 52.9522 20.3663 -47.5213
4 0 21.724 -48.879
3 2.42114 24.1037 -33.1095
4 2.7155 24.4395 -48.879
4 1.35775 23.0817 -47.5213
3 0.883818 28.7326 -31.8098
3 3.63906 25.673 -31.7929
4 4.07325 25.7973 -47.5213
4 5.431 21.724 -48.879
3 5.25099 27.0172 -33.1348
3 8.05916 24.2842 -33.0312
4 8.1465 24.4395 -48.879
4 6.78875 23.0817 -47.5213
3 6.56347 28.442 -31.8828
3 9.35181 25.901 -31.8398
4 9.50425 25.7973 -47.5213
4 10.862 21.724 -48.879
3 10.7546 27.1686 -33.1715
3 13.5416 24.4306 -33.0379
4 13.5775 24.4395 -48.879
4 12.2197 23.0817 -47.5213
3 11.9862 28.5462 -31.8052
3 14.8775 25.8664 -31.7692
4 14.9352 25.7973 -47.5213
4 16.293 21.724 -48.879
3 16.2311 27.13 -33.1539
1 18.9246 24.4091 -33.0361
4 19.0085 24.4395 -48.879
4 17.6507 23.0817 -47.5213
1 17.528 28.5165 -31.8199
1 20.2865 25.824 -31.7597
4 20.3663 25.7973 -47.5213
4 21.724 21.724 -48.879
1 21.666 27.1106 -33.105
1 24.4103 24.4742 -33.1169
4 24.4395 24.4395 -48.879
4 23.0817 23.0817 -47.5213
1 23.0363 28.4432 -31.8114
1 25.6801 25.8196 -31.7515
4 25.7973 25.7973 -47.5213
4 27.155 21.724 -48.879
1 27.1519 27.1558 -32.9878
1 29.8469 24.4401 -33.0852
4 29.8705 24.4395 -48.879
4 28.5128 23.0817 -47.5213
1 28.6109 28.5375 -31.6584
1 31.2204 25.8282 -31.6874
4 31.2282 25.7973 -47.5213
4 32.586 21.724 -48.879
1 32.5434 27.16 -33.0751