14995
 Atoms. Timestep: 95000
4 0 0 -54.31
4 0 2.7155 -51.5945
4 2.7155 0 -51.5945
4 2.7155 2.7155 -54.31
4 1.35775 1.35775 -52.9522
4 1.35775 4.07325 -50.2368
4 4.07325 1.35775 -50.2368
4 4.07325 4.07325 -52.9522
4 5.431 0 -54.31
4 5.431 2.7155 -51.5945
4 8.1465 0 -51.5945
4 8.1465 2.7155 -54.31
4 6.78875 1.35775 -52.9522
4 6.78875 4.07325 -50.2368
4 9.50425 1.35775 -50.2368
4 9.50425 4.07325 -52.9522
4 10.862 0 -54.31
4 10.862 2.7155 -51.5945
4 13.5775 0 -51.5945
4 13.5775 2.7155 -54.31
4 12.2197 1.35775 -52.9522
4 12.2197 4.07325 -50.2368
4 14.9352 1.35775 -50.2368
4 14.9352 4.07325 -52.9522
4 16.293 0 -54.31
4 16.293 2.7155 -51.5945
4 19.0085 0 -51.5945
4 19.0085 2.7155 -54.31
4 17.6507 1.35775 -52.9522
4 17.6507 4.07325 -50.2368
4 20.3663 1.35775 -50.2368
4 20.3663 4.07325 -52.9522
4 21.724 0 -54.31
4 21.724 2.7155 -51.5945
4 24.4395 0 -51.5945
4 24.4395 2.7155 -54.31
4 23.0817 1.35775 -52.9522
4 23.0817 4.07325 -50.2368
4 25.7973 1.35775 -50.2368
4 25.7973 4.07325 -52.9522
4 27.155 0 -54.31
4 27.155 2.7155 -51.5945
4 29.8705 0 -51.5945
4 29.8705 2.7155 -54.31
4 28.5128 1.35775 -52.9522
4 28.5128 4.07325 -50.2368
4 31.2282 1.35775 -50.2368
4 31.2282 4.07325 -52.9522
4 32.586 0 -54.31
4 32.586 2.7155 -51.5945
4 35.3015 0 -51.5945
4 35.3015 2.7155 -54.31
4 33.9438 1.35775 -52.9522
4 33.9438 4.07325 -50.2368
4 36.6593 1.35775 -50.2368
4 36.6593 4.07325 -52.9522
4 38.017 0 -54.31
4 38.017 2.7155 -51.5945
4 40.7325 0 -51.5945
4 40.7325 2.7155 -54.31
4 39.3747 1.35775 -52.9522
4 39.3747 4.07325 -50.2368
4 42.0902 1.35775 -50.2368
4 42.0902 4.07325 -52.9522
4 43.448 0 -54.31
4 43.448 2.7155 -51.5945
4 46.1635 0 -51.5945
4 46.1635 2.7155 -54.31
4 44.8058 1.35775 -52.9522
4 44.8058 4.07325 -50.2368
4 47.5213 1.35775 -50.2368
4 47.5213 4.07325 -52.9522
4 48.879 0 -54.31
4 48.879 2.7155 -51.5945
4 51.5945 0 -51.5945
4 51.5945 2.7155 -54.31
4 50.2368 1.35775 -52.9522
4 50.2368 4.07325 -50.2368
4 52.9522 1.35775 -50.2368
4 52.9522 4.07325 -52.9522
4 0 5.431 -54.31
4 0 8.1465 -51.5945
4 2.7155 5.431 -51.5945
4 2.7155 8.1465 -54.31
4 1.35775 6.78875 -52.9522
4 1.35775 9.50425 -50.2368
4 4.07325 6.78875 -50.2368
4 4.07325 9.50425 -52.9522
4 5.431 5.431 -54.31
4 5.431 8.1465 -51.5945
4 8.1465 5.431 -51.5945
4 8.1465 8.1465 -54.31
4 6.78875 6.78875 -52.9522
4 6.78875 9.50425 -50.2368
4 9.50425 6.78875 -50.2368
4 9.50425 9.50425 -52.9522
4 10.862 5.431 -54.31
4 10.862 8.1465 -51.5945
4 13.5775 5.431 -51.5945
4 13.5775 8.1465 -54.31
4 12.2197 6.78875 -52.9522
4 12.2197 9.50425 -50.2368
4 14.9352 6.78875 -50.2368
4 14.9352 9.50425 -52.9522
4 16.293 5.431 -54.31
4 16.293 8.1465 -51.5945
4 19.0085 5.431 -51.5945
4 19.0085 8.1465 -54.31
4 17.6507 6.78875 -52.9522
4 17.6507 9.50425 -50.2368
4 20.3663 6.78875 -50.2368
4 20.3663 9.50425 -52.9522
4 21.724 5.431 -54.31
4 21.724 8.1465 -51.5945
4 24.4395 5.431 -51.5945
4 24.4395 8.1465 -54.31
4 23.0817 6.78875 -52.9522
4 23.0817 9.50425 -50.2368
4 25.7973 6.78875 -50.2368
4 25.7973 9.50425 -52.9522
4 27.155 5.431 -54.31
4 27.155 8.1465 -51.5945
4 29.8705 5.431 -51.5945
4 29.8705 8.1465 -54.31
4 28.5128 6.78875 -52.9522
4 28.5128 9.50425 -50.2368
4 31.2282 6.78875 -50.2368
4 31.2282 9.50425 -52.9522
4 32.586 5.431 -54.31
4 32.586 8.1465 -51.5945
4 35.3015 5.431 -51.5945
4 35.3015 8.1465 -54.31
4 33.9438 6.78875 -52.9522
4 33.9438 9.50425 -50.2368
4 36.6593 6.78875 -50.2368
4 36.6593 9.50425 -52.9522
4 38.017 5.431 -54.31
4 38.017 8.1465 -51.5945
4 40.7325 5.431 -51.5945
4 40.7325 8.1465 -54.31
4 39.3747 6.78875 -52.9522
4 39.3747 9.50425 -50.2368
4 42.0902 6.78875 -50.2368
4 42.0902 9.50425 -52.9522
4 43.448 5.431 -54.31
4 43.448 8.1465 -51.5945
4 46.1635 5.431 -51.5945
4 46.1635 8.1465 -54.31
4 44.8058 6.78875 -52.9522
4 44.8058 9.50425 -50.2368
4 47.5213 6.78875 -50.2368
4 47.5213 9.50425 -52.9522
4 48.879 5.431 -54.31
4 48.879 8.1465 -51.5945
4 51.5945 5.431 -51.5945
4 51.5945 8.1465 -54.31
4 50.2368 6.78875 -52.9522
4 50.2368 9.50425 -50.2368
4 52.9522 6.78875 -50.2368
4 52.9522 9.50425 -52.9522
4 0 10.862 -54.31
4 0 13.5775 -51.5945
4 2.7155 10.862 -51.5945
4 2.7155 13.5775 -54.31
4 1.35775 12.2197 -52.9522
4 1.35775 14.9352 -50.2368
4 4.07325 12.2197 -50.2368
4 4.07325 14.9352 -52.9522
4 5.431 10.862 -54.31
4 5.431 13.5775 -51.5945
4 8.1465 10.862 -51.5945
4 8.1465 13.5775 -54.31
4 6.78875 12.2197 -52.9522
4 6.78875 14.9352 -50.2368
4 9.50425 12.2197 -50.2368
4 9.50425 14.9352 -52.9522
4 10.862 10.862 -54.31
4 10.862 13.5775 -51.5945
4 13.5775 10.862 -51.5945
4 13.5775 13.5775 -54.31
4 12.2197 12.2197 -52.9522
4 12.2197 14.9352 -50.2368
4 14.9352 12.2197 -50.2368
4 14.9352 14.9352 -52.9522
4 16.293 10.862 -54.31
4 16.293 13.5775 -51.5945
4 19.0085 10.862 -51.5945
4 19.0085 13.5775 -54.31
4 17.6507 12.2197 -52.9522
4 17.6507 14.9352 -50.2368
4 20.3663 12.2197 -50.2368
4 20.3663 14.9352 -52.9522
4 21.724 10.862 -54.31
4 21.724 13.5775 -51.5945
4 24.4395 10.862 -51.5945
4 24.4395 13.5775 -54.31
4 23.0817 12.2197 -52.9522
4 23.0817 14.9352 -50.2368
4 25.7973 12.2197 -50.2368
4 25.7973 14.9352 -52.9522
4 27.155 10.862 -54.31
4 27.155 13.5775 -51.5945
4 29.8705 10.862 -51.5945
4 29.8705 13.5775 -54.31
4 28.5128 12.2197 -52.9522
4 28.5128 14.9352 -50.2368
4 31.2282 12.2197 -50.2368
4 31.2282 14.9352 -52.9522
4 32.586 10.862 -54.31
4 32.586 13.5775 -51.5945
4 35.3015 10.862 -51.5945
4 35.3015 13.5775 -54.31
4 33.9438 12.2197 -52.9522
4 33.9438 14.9352 -50.2368
4 36.6593 12.2197 -50.2368
4 36.6593 14.9352 -52.9522
4 38.017 10.862 -54.31
4 38.017 13.5775 -51.5945
4 40.7325 10.862 -51.5945
4 40.7325 13.5775 -54.31
4 39.3747 12.2197 -52.9522
4 39.3747 14.9352 -50.2368
4 42.0902 12.2197 -50.2368
4 42.0902 14.9352 -52.9522
4 43.448 10.862 -54.31
4 43.448 13.5775 -51.5945
4 46.1635 10.862 -51.5945
4 46.1635 13.5775 -54.31
4 44.8058 12.2197 -52.9522
4 44.8058 14.9352 -50.2368
4 47.5213 12.2197 -50.2368
4 47.5213 14.9352 -52.9522
4 48.879 10.862 -54.31
4 48.879 13.5775 -51.5945
4 51.5945 10.862 -51.5945
4 51.5945 13.5775 -54.31
4 50.2368 12.2197 -52.9522
4 50.2368 14.9352 -50.2368
4 52.9522 12.2197 -50.2368
4 52.9522 14.9352 -52.9522
4 0 16.293 -54.31
4 0 19.0085 -51.5945
4 2.7155 16.293 -51.5945
4 2.7155 19.0085 -54.31
4 1.35775 17.6507 -52.9522
4 1.35775 20.3663 -50.2368
4 4.07325 17.6507 -50.2368
4 4.07325 20.3663 -52.9522
4 5.431 16.293 -54.31
4 5.431 19.0085 -51.5945
4 8.1465 16.293 -51.5945
4 8.1465 19.0085 -54.31
4 6.78875 17.6507 -52.9522
4 6.78875 20.3663 -50.2368
4 9.50425 17.6507 -50.2368
4 9.50425 20.3663 -52.9522
4 10.862 16.293 -54.31
4 10.862 19.0085 -51.5945
4 13.5775 16.293 -51.5945
4 13.5775 19.0085 -54.31
4 12.2197 17.6507 -52.9522
4 12.2197 20.3663 -50.2368
4 14.9352 17.6507 -50.2368
4 14.9352 20.3663 -52.9522
4 16.293 16.293 -54.31
4 16.293 19.0085 -51.5945
4 19.0085 16.293 -51.5945
4 19.0085 19.0085 -54.31
4 17.6507 17.6507 -52.9522
4 17.6507 20.3663 -50.2368
4 20.3663 17.6507 -50.2368
4 20.3663 20.3663 -52.9522
4 21.724 16.293 -54.31
4 21.724 19.0085 -51.5945
4 24.4395 16.293 -51.5945
4 24.4395 19.0085 -54.31
4 23.0817 17.6507 -52.9522
4 23.0817 20.3663 -50.2368
4 25.7973 17.6507 -50.2368
4 25.7973 20.3663 -52.9522
4 27.155 16.293 -54.31
4 27.155 19.0085 -51.5945
4 29.8705 16.293 -51.5945
4 29.8705 19.0085 -54.31
4 28.5128 17.6507 -52.9522
4 28.5128 20.3663 -50.2368
4 31.2282 17.6507 -50.2368
4 31.2282 20.3663 -52.9522
4 32.586 16.293 -54.31
4 32.586 19.0085 -51.5945
4 35.3015 16.293 -51.5945
4 35.3015 19.0085 -54.31
4 33.9438 17.6507 -52.9522
4 33.9438 20.3663 -50.2368
4 36.6593 17.6507 -50.2368
4 36.6593 20.3663 -52.9522
4 38.017 16.293 -54.31
4 38.017 19.0085 -51.5945
4 40.7325 16.293 -51.5945
4 40.7325 19.0085 -54.31
4 39.3747 17.6507 -52.9522
4 39.3747 20.3663 -50.2368
4 42.0902 17.6507 -50.2368
4 42.0902 20.3663 -52.9522
4 43.448 16.293 -54.31
4 43.448 19.0085 -51.5945
4 46.1635 16.293 -51.5945
4 46.1635 19.0085 -54.31
4 44.8058 17.6507 -52.9522
4 44.8058 20.3663 -50.2368
4 47.5213 17.6507 -50.2368
4 47.5213 20.3663 -52.9522
4 48.879 16.293 -54.31
4 48.879 19.0085 -51.5945
4 51.5945 16.293 -51.5945
4 51.5945 19.0085 -54.31
4 50.2368 17.6507 -52.9522
4 50.2368 20.3663 -50.2368
4 52.9522 17.6507 -50.2368
4 52.9522 20.3663 -52.9522
4 0 21.724 -54.31
4 0 24.4395 -51.5945
4 2.7155 21.724 -51.5945
4 2.7155 24.4395 -54.31
4 1.35775 23.0817 -52.9522
4 1.35775 25.7973 -50.2368
4 4.07325 23.0817 -50.2368
4 4.07325 25.7973 -52.9522
4 5.431 21.724 -54.31
4 5.431 24.4395 -51.5945
4 8.1465 21.724 -51.5945
4 8.1465 24.4395 -54.31
4 6.78875 23.0817 -52.9522
4 6.78875 25.7973 -50.2368
4 9.50425 23.0817 -50.2368
4 9.50425 25.7973 -52.9522
4 10.862 21.724 -54.31
4 10.862 24.4395 -51.5945
4 13.5775 21.724 -51.5945
4 13.5775 24.4395 -54.31
4 12.2197 23.0817 -52.9522
4 12.2197 25.7973 -50.2368
4 14.9352 23.0817 -50.2368
4 14.9352 25.7973 -52.9522
4 16.293 21.724 -54.31
4 16.293 24.4395 -51.5945
4 19.0085 21.724 -51.5945
4 19.0085 24.4395 -54.31
4 17.6507 23.0817 -52.9522
4 17.6507 25.7973 -50.2368
4 20.3663 23.0817 -50.2368
4 20.3663 25.7973 -52.9522
4 21.724 21.724 -54.31
4 21.724 24.4395 -51.5945
4 24.4395 21.724 -51.5945
4 24.4395 24.4395 -54.31
4 23.0817 23.0817 -52.9522
4 23.0817 25.7973 -50.2368
4 25.7973 23.0817 -50.2368
4 25.7973 25.7973 -52.9522
4 27.155 21.724 -54.31
4 27.155 24.4395 -51.5945
4 29.8705 21.724 -51.5945
4 29.8705 24.4395 -54.31
4 28.5128 23.0817 -52.9522
4 28.5128 25.7973 -50.2368
4 31.2282 23.0817 -50.2368
4 31.2282 25.7973 -52.9522
4 32.586 21.724 -54.31
4 32.586 24.4395 -51.5945
4 35.3015 21.724 -51.5945
4 35.3015 24.4395 -54.31
4 33.9438 23.0817 -52.9522
4 33.9438 25.7973 -50.2368
4 36.6593 23.0817 -50.2368
4 36.6593 25.7973 -52.9522
4 38.017 21.724 -54.31
4 38.017 24.4395 -51.5945
4 40.7325 21.724 -51.5945
4 40.7325 24.4395 -54.31
4 39.3747 23.0817 -52.9522
4 39.3747 25.7973 -50.2368
4 42.0902 23.0817 -50.2368
4 42.0902 25.7973 -52.9522
4 43.448 21.724 -54.31
4 43.448 24.4395 -51.5945
4 46.1635 21.724 -51.5945
4 46.1635 24.4395 -54.31
4 44.8058 23.0817 -52.9522
4 44.8058 25.7973 -50.2368
4 47.5213 23.0817 -50.2368
4 47.5213 25.7973 -52.9522
4 48.879 21.724 -54.31
4 48.879 24.4395 -51.5945
4 51.5945 21.724 -51.5945
4 51.5945 24.4395 -54.31
4 50.2368 23.0817 -52.9522
4 50.2368 25.7973 -50.2368
4 52.9522 23.0817 -50.2368
4 52.9522 25.7973 -52.9522
4 0 27.155 -54.31
4 0 29.8705 -51.5945
4 2.7155 27.155 -51.5945
4 2.7155 29.8705 -54.31
4 1.35775 28.5128 -52.9522
4 1.35775 31.2282 -50.2368
4 4.07325 28.5128 -50.2368
4 4.07325 31.2282 -52.9522
4 5.431 27.155 -54.31
4 5.431 29.8705 -51.5945
4 8.1465 27.155 -51.5945
4 8.1465 29.8705 -54.31
4 6.78875 28.5128 -52.9522
4 6.78875 31.2282 -50.2368
4 9.50425 28.5128 -50.2368
4 9.50425 31.2282 -52.9522
4 10.862 27.155 -54.31
4 10.862 29.8705 -51.5945
4 13.5775 27.155 -51.5945
4 13.5775 29.8705 -54.31
4 12.2197 28.5128 -52.9522
4 12.2197 31.2282 -50.2368
4 14.9352 28.5128 -50.2368
4 14.9352 31.2282 -52.9522
4 16.293 27.155 -54.31
4 16.293 29.8705 -51.5945
4 19.0085 27.155 -51.5945
4 19.0085 29.8705 -54.31
4 17.6507 28.5128 -52.9522
4 17.6507 31.2282 -50.2368
4 20.3663 28.5128 -50.2368
4 20.3663 31.2282 -52.9522
4 21.724 27.155 -54.31
4 21.724 29.8705 -51.5945
4 24.4395 27.155 -51.5945
4 24.4395 29.8705 -54.31
4 23.0817 28.5128 -52.9522
4 23.0817 31.2282 -50.2368
4 25.7973 28.5128 -50.2368
4 25.7973 31.2282 -52.9522
4 27.155 27.155 -54.31
4 27.155 29.8705 -51.5945
4 29.8705 27.155 -51.5945
4 29.8705 29.8705 -54.31
4 28.5128 28.5128 -52.9522
4 28.5128 31.2282 -50.2368
4 31.2282 28.5128 -50.2368
4 31.2282 31.2282 -52.9522
4 32.586 27.155 -54.31
4 32.586 29.8705 -51.5945
4 35.3015 27.155 -51.5945
4 35.3015 29.8705 -54.31
4 33.9438 28.5128 -52.9522
4 33.9438 31.2282 -50.2368
4 36.6593 28.5128 -50.2368
4 36.6593 31.2282 -52.9522
4 38.017 27.155 -54.31
4 38.017 29.8705 -51.5945
4 40.7325 27.155 -51.5945
4 40.7325 29.8705 -54.31
4 39.3747 28.5128 -52.9522
4 39.3747 31.2282 -50.2368
4 42.0902 28.5128 -50.2368
4 42.0902 31.2282 -52.9522
4 43.448 27.155 -54.31
4 43.448 29.8705 -51.5945
4 46.1635 27.155 -51.5945
4 46.1635 29.8705 -54.31
4 44.8058 28.5128 -52.9522
4 44.8058 31.2282 -50.2368
4 47.5213 28.5128 -50.2368
4 47.5213 31.2282 -52.9522
4 48.879 27.155 -54.31
4 48.879 29.8705 -51.5945
4 51.5945 27.155 -51.5945
4 51.5945 29.8705 -54.31
4 50.2368 28.5128 -52.9522
4 50.2368 31.2282 -50.2368
4 52.9522 28.5128 -50.2368
4 52.9522 31.2282 -52.9522
4 0 32.586 -54.31
4 0 35.3015 -51.5945
4 2.7155 32.586 -51.5945
4 2.7155 35.3015 -54.31
4 1.35775 33.9438 -52.9522
4 1.35775 36.6593 -50.2368
4 4.07325 33.9438 -50.2368
4 4.07325 36.6593 -52.9522
4 5.431 32.586 -54.31
4 5.431 35.3015 -51.5945
4 8.1465 32.586 -51.5945
4 8.1465 35.3015 -54.31
4 6.78875 33.9438 -52.9522
4 6.78875 36.6593 -50.2368
4 9.50425 33.9438 -50.2368
4 9.50425 36.6593 -52.9522
4 10.862 32.586 -54.31
4 10.862 35.3015 -51.5945
4 13.5775 32.586 -51.5945
4 13.5775 35.3015 -54.31
4 12.2197 33.9438 -52.9522
4 12.2197 36.6593 -50.2368
4 14.9352 33.9438 -50.2368
4 14.9352 36.6593 -52.9522
4 16.293 32.586 -54.31
4 16.293 35.3015 -51.5945
4 19.0085 32.586 -51.5945
4 19.0085 35.3015 -54.31
4 17.6507 33.9438 -52.9522
4 17.6507 36.6593 -50.2368
4 20.3663 33.9438 -50.2368
4 20.3663 36.6593 -52.9522
4 21.724 32.586 -54.31
4 21.724 35.3015 -51.5945
4 24.4395 32.586 -51.5945
4 24.4395 35.3015 -54.31
4 23.0817 33.9438 -52.9522
4 23.0817 36.6593 -50.2368
4 25.7973 33.9438 -50.2368
4 25.7973 36.6593 -52.9522
4 27.155 32.586 -54.31
4 27.155 35.3015 -51.5945
4 29.8705 32.586 -51.5945
4 29.8705 35.3015 -54.31
4 28.5128 33.9438 -52.9522
4 28.5128 36.6593 -50.2368
4 31.2282 33.9438 -50.2368
4 31.2282 36.6593 -52.9522
4 32.586 32.586 -54.31
4 32.586 35.3015 -51.5945
4 35.3015 32.586 -51.5945
4 35.3015 35.3015 -54.31
4 33.9438 33.9438 -52.9522
4 33.9438 36.6593 -50.2368
4 36.6593 33.9438 -50.2368
4 36.6593 36.6593 -52.9522
4 38.017 32.586 -54.31
4 38.017 35.3015 -51.5945
4 40.7325 32.586 -51.5945
4 40.7325 35.3015 -54.31
4 39.3747 33.9438 -52.9522
4 39.3747 36.6593 -50.2368
4 42.0902 33.9438 -50.2368
4 42.0902 36.6593 -52.9522
4 43.448 32.586 -54.31
4 43.448 35.3015 -51.5945
4 46.1635 32.586 -51.5945
4 46.1635 35.3015 -54.31
4 44.8058 33.9438 -52.9522
4 44.8058 36.6593 -50.2368
4 47.5213 33.9438 -50.2368
4 47.5213 36.6593 -52.9522
4 48.879 32.586 -54.31
4 48.879 35.3015 -51.5945
4 51.5945 32.586 -51.5945
4 51.5945 35.3015 -54.31
4 50.2368 33.9438 -52.9522
4 50.2368 36.6593 -50.2368
4 52.9522 33.9438 -50.2368
4 52.9522 36.6593 -52.9522
4 0 38.017 -54.31
4 0 40.7325 -51.5945
4 2.7155 38.017 -51.5945
4 2.7155 40.7325 -54.31
4 1.35775 39.3747 -52.9522
4 1.35775 42.0902 -50.2368
4 4.07325 39.3747 -50.2368
4 4.07325 42.0902 -52.9522
4 5.431 38.017 -54.31
4 5.431 40.7325 -51.5945
4 8.1465 38.017 -51.5945
4 8.1465 40.7325 -54.31
4 6.78875 39.3747 -52.9522
4 6.78875 42.0902 -50.2368
4 9.50425 39.3747 -50.2368
4 9.50425 42.0902 -52.9522
4 10.862 38.017 -54.31
4 10.862 40.7325 -51.5945
4 13.5775 38.017 -51.5945
4 13.5775 40.7325 -54.31
4 12.2197 39.3747 -52.9522
4 12.2197 42.0902 -50.2368
4 14.9352 39.3747 -50.2368
4 14.9352 42.0902 -52.9522
4 16.293 38.017 -54.31
4 16.293 40.7325 -51.5945
4 19.0085 38.017 -51.5945
4 19.0085 40.7325 -54.31
4 17.6507 39.3747 -52.9522
4 17.6507 42.0902 -50.2368
4 20.3663 39.3747 -50.2368
4 20.3663 42.0902 -52.9522
4 21.724 38.017 -54.31
4 21.724 40.7325 -51.5945
4 24.4395 38.017 -51.5945
4 24.4395 40.7325 -54.31
4 23.0817 39.3747 -52.9522
4 23.0817 42.0902 -50.2368
4 25.7973 39.3747 -50.2368
4 25.7973 42.0902 -52.9522
4 27.155 38.017 -54.31
4 27.155 40.7325 -51.5945
4 29.8705 38.017 -51.5945
4 29.8705 40.7325 -54.31
4 28.5128 39.3747 -52.9522
4 28.5128 42.0902 -50.2368
4 31.2282 39.3747 -50.2368
4 31.2282 42.0902 -52.9522
4 32.586 38.017 -54.31
4 32.586 40.7325 -51.5945
4 35.3015 38.017 -51.5945
4 35.3015 40.7325 -54.31
4 33.9438 39.3747 -52.9522
4 33.9438 42.0902 -50.2368
4 36.6593 39.3747 -50.2368
4 36.6593 42.0902 -52.9522
4 38.017 38.017 -54.31
4 38.017 40.7325 -51.5945
4 40.7325 38.017 -51.5945
4 40.7325 40.7325 -54.31
4 39.3747 39.3747 -52.9522
4 39.3747 42.0902 -50.2368
4 42.0902 39.3747 -50.2368
4 42.0902 42.0902 -52.9522
4 43.448 38.017 -54.31
4 43.448 40.7325 -51.5945
4 46.1635 38.017 -51.5945
4 46.1635 40.7325 -54.31
4 44.8058 39.3747 -52.9522
4 44.8058 42.0902 -50.2368
4 47.5213 39.3747 -50.2368
4 47.5213 42.0902 -52.9522
4 48.879 38.017 -54.31
4 48.879 40.7325 -51.5945
4 51.5945 38.017 -51.5945
4 51.5945 40.7325 -54.31
4 50.2368 39.3747 -52.9522
4 50.2368 42.0902 -50.2368
4 52.9522 39.3747 -50.2368
4 52.9522 42.0902 -52.9522
4 0 43.448 -54.31
4 0 46.1635 -51.5945
4 2.7155 43.448 -51.5945
4 2.7155 46.1635 -54.31
4 1.35775 44.8058 -52.9522
4 1.35775 47.5213 -50.2368
4 4.07325 44.8058 -50.2368
4 4.07325 47.5213 -52.9522
4 5.431 43.448 -54.31
4 5.431 46.1635 -51.5945
4 8.1465 43.448 -51.5945
4 8.1465 46.1635 -54.31
4 6.78875 44.8058 -52.9522
4 6.78875 47.5213 -50.2368
4 9.50425 44.8058 -50.2368
4 9.50425 47.5213 -52.9522
4 10.862 43.448 -54.31
4 10.862 46.1635 -51.5945
4 13.5775 43.448 -51.5945
4 13.5775 46.1635 -54.31
4 12.2197 44.8058 -52.9522
4 12.2197 47.5213 -50.2368
4 14.9352 44.8058 -50.2368
4 14.9352 47.5213 -52.9522
4 16.293 43.448 -54.31
4 16.293 46.1635 -51.5945
4 19.0085 43.448 -51.5945
4 19.0085 46.1635 -54.31
4 17.6507 44.8058 -52.9522
4 17.6507 47.5213 -50.2368
4 20.3663 44.8058 -50.2368
4 20.3663 47.5213 -52.9522
4 21.724 43.448 -54.31
4 21.724 46.1635 -51.5945
4 24.4395 43.448 -51.5945
4 24.4395 46.1635 -54.31
4 23.0817 44.8058 -52.9522
4 23.0817 47.5213 -50.2368
4 25.7973 44.8058 -50.2368
4 25.7973 47.5213 -52.9522
4 27.155 43.448 -54.31
4 27.155 46.1635 -51.5945
4 29.8705 43.448 -51.5945
4 29.8705 46.1635 -54.31
4 28.5128 44.8058 -52.9522
4 28.5128 47.5213 -50.2368
4 31.2282 44.8058 -50.2368
4 31.2282 47.5213 -52.9522
4 32.586 43.448 -54.31
4 32.586 46.1635 -51.5945
4 35.3015 43.448 -51.5945
4 35.3015 46.1635 -54.31
4 33.9438 44.8058 -52.9522
4 33.9438 47.5213 -50.2368
4 36.6593 44.8058 -50.2368
4 36.6593 47.5213 -52.9522
4 38.017 43.448 -54.31
4 38.017 46.1635 -51.5945
4 40.7325 43.448 -51.5945
4 40.7325 46.1635 -54.31
4 39.3747 44.8058 -52.9522
4 39.3747 47.5213 -50.2368
4 42.0902 44.8058 -50.2368
4 42.0902 47.5213 -52.9522
4 43.448 43.448 -54.31
4 43.448 46.1635 -51.5945
4 46.1635 43.448 -51.5945
4 46.1635 46.1635 -54.31
4 44.8058 44.8058 -52.9522
4 44.8058 47.5213 -50.2368
4 47.5213 44.8058 -50.2368
4 47.5213 47.5213 -52.9522
4 48.879 43.448 -54.31
4 48.879 46.1635 -51.5945
4 51.5945 43.448 -51.5945
4 51.5945 46.1635 -54.31
4 50.2368 44.8058 -52.9522
4 50.2368 47.5213 -50.2368
4 52.9522 44.8058 -50.2368
4 52.9522 47.5213 -52.9522
4 0 48.879 -54.31
4 0 51.5945 -51.5945
4 2.7155 48.879 -51.5945
4 2.7155 51.5945 -54.31
4 1.35775 50.2368 -52.9522
4 1.35775 52.9522 -50.2368
4 4.07325 50.2368 -50.2368
4 4.07325 52.9522 -52.9522
4 5.431 48.879 -54.31
4 5.431 51.5945 -51.5945
4 8.1465 48.879 -51.5945
4 8.1465 51.5945 -54.31
4 6.78875 50.2368 -52.9522
4 6.78875 52.9522 -50.2368
4 9.50425 50.2368 -50.2368
4 9.50425 52.9522 -52.9522
4 10.862 48.879 -54.31
4 10.862 51.5945 -51.5945
4 13.5775 48.879 -51.5945
4 13.5775 51.5945 -54.31
4 12.2197 50.2368 -52.9522
4 12.2197 52.9522 -50.2368
4 14.9352 50.2368 -50.2368
4 14.9352 52.9522 -52.9522
4 16.293 48.879 -54.31
4 16.293 51.5945 -51.5945
4 19.0085 48.879 -51.5945
4 19.0085 51.5945 -54.31
4 17.6507 50.2368 -52.9522
4 17.6507 52.9522 -50.2368
4 20.3663 50.2368 -50.2368
4 20.3663 52.9522 -52.9522
4 21.724 48.879 -54.31
4 21.724 51.5945 -51.5945
4 24.4395 48.879 -51.5945
4 24.4395 51.5945 -54.31
4 23.0817 50.2368 -52.9522
4 23.0817 52.9522 -50.2368
4 25.7973 50.2368 -50.2368
4 25.7973 52.9522 -52.9522
4 27.155 48.879 -54.31
4 27.155 51.5945 -51.5945
4 29.8705 48.879 -51.5945
4 29.8705 51.5945 -54.31
4 28.5128 50.2368 -52.9522
4 28.5128 52.9522 -50.2368
4 31.2282 50.2368 -50.2368
4 31.2282 52.9522 -52.9522
4 32.586 48.879 -54.31
4 32.586 51.5945 -51.5945
4 35.3015 48.879 -51.5945
4 35.3015 51.5945 -54.31
4 33.9438 50.2368 -52.9522
4 33.9438 52.9522 -50.2368
4 36.6593 50.2368 -50.2368
4 36.6593 52.9522 -52.9522
4 38.017 48.879 -54.31
4 38.017 51.5945 -51.5945
4 40.7325 48.879 -51.5945
4 40.7325 51.5945 -54.31
4 39.3747 50.2368 -52.9522
4 39.3747 52.9522 -50.2368
4 42.0902 50.2368 -50.2368
4 42.0902 52.9522 -52.9522
4 43.448 48.879 -54.31
4 43.448 51.5945 -51.5945
4 46.1635 48.879 -51.5945
4 46.1635 51.5945 -54.31
4 44.8058 50.2368 -52.9522
4 44.8058 52.9522 -50.2368
4 47.5213 50.2368 -50.2368
4 47.5213 52.9522 -52.9522
4 48.879 48.879 -54.31
4 48.879 51.5945 -51.5945
4 51.5945 48.879 -51.5945
4 51.5945 51.5945 -54.31
4 50.2368 50.2368 -52.9522
4 50.2368 52.9522 -50.2368
4 52.9522 50.2368 -50.2368
4 52.9522 52.9522 -52.9522
4 0 0 -48.879
3 2.45966 2.40799 -30.6781
4 2.7155 2.7155 -48.879
4 1.35775 1.35775 -47.5213
3 0.81572 5.78848 -30.4253
3 3.78357 3.87894 -29.4884
4 4.07325 4.07325 -47.5213
4 5.431 0 -48.879
3 5.36311 5.23396 -30.6276
3 7.9248 2.56665 -30.6143
4 8.1465 2.7155 -48.879
4 6.78875 1.35775 -47.5213
3 6.55769 6.60509 -29.3214
3 9.21831 3.98835 -29.4052
4 9.50425 4.07325 -47.5213
4 10.862 0 -48.879
3 10.7657 5.3829 -30.658
3 13.5842 2.75266 -30.6006
4 13.5775 2.7155 -48.879
4 12.2197 1.35775 -47.5213
3 12.1731 6.6355 -29.4012
3 14.8874 4.09879 -29.3204
4 14.9352 4.07325 -47.5213
4 16.293 0 -48.879
3 16.2193 5.44523 -30.667
1 18.9712 2.61212 -30.6226
4 19.0085 2.7155 -48.879
4 17.6507 1.35775 -47.5213
1 17.6473 6.68003 -29.352
1 20.312 3.94256 -29.3237
4 20.3663 4.07325 -47.5213
4 21.724 0 -48.879
1 21.7218 5.42653 -30.551
1 24.3617 2.66942 -30.6293
4 24.4395 2.7155 -48.879
4 23.0817 1.35775 -47.5213
1 23.1379 6.75395 -29.2383
1 25.7965 4.02227 -29.4667
4 25.7973 4.07325 -47.5213
4 27.155 0 -48.879
1 27.1539 5.40811 -30.7149
1 29.7778 2.7149 -30.6936
4 29.8705 2.7155 -48.879
4 28.5128 1.35775 -47.5213
1 28.4433 6.87277 -29.3018
1 31.1628 3.99544 -29.3244
4 31.2282 4.07325 -47.5213
4 32.586 0 -48.879
1 32.5441 5.36598 -30.6327
1 35.2279 2.60733 -30.5793
4 35.3015 2.7155 -48.879
4 33.9438 1.35775 -47.5213
1 33.9908 6.75279 -29.4098
1 36.5867 3.98057 -29.247
4 36.6593 4.07325 -47.5213
4 38.017 0 -48.879
1 37.9892 5.43145 -30.4809
1 40.7557 2.68127 -30.6014
4 40.7325 2.7155 -48.879
4 39.3747 1.35775 -47.5213
1 39.5018 6.74773 -29.2853
1 42.1667 4.05223 -29.3221
4 42.0902 4.07325 -47.5213
4 43.448 0 -48.879
1 43.5455 5.50734 -30.5968
1 46.2455 2.7571 -30.5584
4 46.1635 2.7155 -48.879
4 44.8058 1.35775 -47.5213
1 44.8917 6.78389 -29.2497
1 47.7498 4.09888 -29.3379
4 47.5213 4.07325 -47.5213
4 48.879 0 -48.879
1 48.9527 5.56162 -30.5843
1 51.6694 2.73722 -30.5737
4 51.5945 2.7155 -48.879
4 50.2368 1.35775 -47.5213
1 50.5325 6.66881 -29.276
1 53.3244 3.57019 -29.3192
4 52.9522 4.07325 -47.5213
4 0 5.431 -48.879
3 2.36392 7.72203 -30.6762
4 2.7155 8.1465 -48.879
4 1.35775 6.78875 -47.5213
3 0.857129 11.3336 -30.2446
3 3.77124 9.1821 -29.4912
4 4.07325 9.50425 -47.5213
4 5.431 5.431 -48.879
3 5.30198 10.7971 -30.5181
3 7.93456 7.9976 -30.7028
4 8.1465 8.1465 -48.879
4 6.78875 6.78875 -47.5213
3 6.63149 12.1839 -29.3693
3 9.29543 9.31923 -29.3555
4 9.50425 9.50425 -47.5213
4 10.862 5.431 -48.879
3 10.7103 10.7322 -30.6411
3 13.4342 8.07396 -30.6547
4 13.5775 8.1465 -48.879
4 12.2197 6.78875 -47.5213
3 12.0335 12.1051 -29.2975
3 14.7848 9.4836 -29.3399
4 14.9352 9.50425 -47.5213
4 16.293 5.431 -48.879
3 16.3025 10.8543 -30.6068
1 18.9487 8.12636 -30.5494
4 19.0085 8.1465 -48.879
4 17.6507 6.78875 -47.5213
1 17.5534 12.1461 -29.3052
1 20.2622 9.48797 -29.2614
4 20.3663 9.50425 -47.5213
4 21.724 5.431 -48.879
1 21.7113 10.8287 -30.5519
1 24.558 8.07699 -30.6149
4 24.4395 8.1465 -48.879
4 23.0817 6.78875 -47.5213
1 23.0776 12.2324 -29.1918
1 25.7897 9.55512 -29.3117
4 25.7973 9.50425 -47.5213
4 27.155 5.431 -48.879
1 27.1181 10.8696 -30.6394
1 29.8065 8.12521 -30.6041
4 29.8705 8.1465 -48.879
4 28.5128 6.78875 -47.5213
1 28.4953 12.1327 -29.3241
1 31.2064 9.47918 -29.2228
4 31.2282 9.50425 -47.5213
4 32.586 5.431 -48.879
1 32.4982 10.8089 -30.5965
1 35.306 8.1258 -30.6739
4 35.3015 8.1465 -48.879
4 33.9438 6.78875 -47.5213
1 33.9907 12.1029 -29.4153
1 36.8186 9.47756 -29.3669
4 36.6593 9.50425 -47.5213
4 38.017 5.431 -48.879
1 38.0811 10.9066 -30.6366
1 40.7483 8.17045 -30.5833
4 40.7325 8.1465 -48.879
4 39.3747 6.78875 -47.5213
1 39.4308 12.292 -29.2445
1 42.2246 9.47497 -29.2533
4 42.0902 9.50425 -47.5213
4 43.448 5.431 -48.879
1 43.42 10.8238 -30.7213
1 46.198 8.14354 -30.5516
4 46.1635 8.1465 -48.879
4 44.8058 6.78875 -47.5213
1 44.9521 12.178 -29.4201
1 47.6651 9.44475 -29.3603
4 47.5213 9.50425 -47.5213
4 48.879 5.431 -48.879
1 48.9755 10.8502 -30.5455
1 51.7363 8.16284 -30.5773
4 51.5945 8.1465 -48.879
4 50.2368 6.78875 -47.5213
1 50.5422 12.0573 -29.3535
1 53.3806 9.5823 -29.699
4 52.9522 9.50425 -47.5213
4 0 10.862 -48.879
3 2.36137 13.2162 -30.5656
4 2.7155 13.5775 -48.879
4 1.35775 12.2197 -47.5213
3 0.792836 17.966 -29.4369
3 3.60057 14.8142 -29.3696
4 4.07325 14.9352 -47.5213
4 5.431 10.862 -48.879
3 5.24099 16.0539 -30.6205
3 8.05379 13.5407 -30.7117
4 8.1465 13.5775 -48.879
4 6.78875 12.2197 -47.5213
3 6.59008 17.5603 -29.4906
3 9.44611 14.8428 -29.3993
4 9.50425 14.9352 -47.5213
4 10.862 10.862 -48.879
3 10.7835 16.2855 -30.6381
3 13.4479 13.4491 -30.539
4 13.5775 13.5775 -48.879
4 12.2197 12.2197 -47.5213
3 12.1668 17.6481 -29.2526
3 14.775 14.8876 -29.3337
4 14.9352 14.9352 -47.5213
4 16.293 10.862 -48.879
3 16.2018 16.2591 -30.6004
1 18.8829 13.4973 -30.5621
4 19.0085 13.5775 -48.879
4 17.6507 12.2197 -47.5213
1 17.5735 17.5769 -29.2863
1 20.3039 14.8884 -29.3372
4 20.3663 14.9352 -47.5213
4 21.724 10.862 -48.879
1 21.6768 16.2524 -30.597
1 24.5295 13.5981 -30.5533
4 24.4395 13.5775 -48.879
4 23.0817 12.2197 -47.5213
1 23.1146 17.6115 -29.2629
1 25.776 14.921 -29.2333
4 25.7973 14.9352 -47.5213
4 27.155 10.862 -48.879
1 27.0776 16.2669 -30.6092
1 29.9427 13.5775 -30.5961
4 29.8705 13.5775 -48.879
4 28.5128 12.2197 -47.5213
1 28.4108 17.7396 -29.269
1 31.1729 14.982 -29.2684
4 31.2282 14.9352 -47.5213
4 32.586 10.862 -48.879
1 32.4963 16.2681 -30.6255
1 35.3093 13.5286 -30.5912
4 35.3015 13.5775 -48.879
4 33.9438 12.2197 -47.5213
1 33.9056 17.6188 -29.3406
1 36.6877 14.9471 -29.3721
4 36.6593 14.9352 -47.5213
4 38.017 10.862 -48.879
1 38.0073 16.316 -30.6677
1 40.8086 13.6572 -30.6094
4 40.7325 13.5775 -48.879
4 39.3747 12.2197 -47.5213
1 39.4522 17.5706 -29.3259
1 42.257 14.904 -29.3428
4 42.0902 14.9352 -47.5213
4 43.448 10.862 -48.879
1 43.5325 16.3075 -30.556
1 46.2574 13.7141 -30.5887
4 46.1635 13.5775 -48.879
4 44.8058 12.2197 -47.5213
1 45.0139 17.5847 -29.3257
1 47.7394 14.8308 -29.2899
4 47.5213 14.9352 -47.5213
4 48.879 10.862 -48.879
1 48.9739 16.363 -30.4912
1 51.6839 13.658 -30.6772
4 51.5945 13.5775 -48.879
4 50.2368 12.2197 -47.5213
1 50.6356 17.7763 -29.4956
1 53.4102 14.832 -29.6981
4 52.9522 14.9352 -47.5213
4 0 16.293 -48.879
3 2.54049 18.8287 -30.6321
4 2.7155 19.0085 -48.879
4 1.35775 17.6507 -47.5213
3 0.879465 22.1277 -30.2685
3 3.81138 20.1891 -29.342
4 4.07325 20.3663 -47.5213
4 5.431 16.293 -48.879
3 5.29218 21.5509 -30.6862
3 8.09574 18.8992 -30.6415
4 8.1465 19.0085 -48.879
4 6.78875 17.6507 -47.5213
3 6.54174 23.0405 -29.4568
3 9.4407 20.2478 -29.3128
4 9.50425 20.3663 -47.5213
4 10.862 16.293 -48.879
3 10.8133 21.6925 -30.724
3 13.5275 18.9842 -30.6298
4 13.5775 19.0085 -48.879
4 12.2197 17.6507 -47.5213
3 12.1836 22.995 -29.3772
3 14.8843 20.3879 -29.3218
4 14.9352 20.3663 -47.5213
4 16.293 16.293 -48.879
3 16.2801 21.7003 -30.6397
1 18.967 18.9366 -30.6047
4 19.0085 19.0085 -48.879
4 17.6507 17.6507 -47.5213
1 17.5843 23.0018 -29.3278
1 20.3186 20.3597 -29.3625
4 20.3663 20.3663 -47.5213
4 21.724 16.293 -48.879
1 21.6806 21.7562 -30.5567
1 24.4694 18.9862 -30.6197
4 24.4395 19.0085 -48.879
4 23.0817 17.6507 -47.5213
1 23.0242 23.0031 -29.2337
1 25.7711 20.3568 -29.2775
4 25.7973 20.3663 -47.5213
4 27.155 16.293 -48.879
1 27.1118 21.6857 -30.593
1 29.9001 18.9866 -30.6566
4 29.8705 19.0085 -48.879
4 28.5128 17.6507 -47.5213
1 28.4705 23.0273 -29.2849
1 31.1428 20.3803 -29.3259
4 31.2282 20.3663 -47.5213
4 32.586 16.293 -48.879
1 32.5768 21.7304 -30.6065
1 35.2346 18.9879 -30.588
4 35.3015 19.0085 -48.879
4 33.9438 17.6507 -47.5213
1 34.0045 22.9849 -29.2864
1 36.7395 20.2438 -29.3949
4 36.6593 20.3663 -47.5213
4 38.017 16.293 -48.879
1 38.0205 21.6681 -30.6375
1 40.7383 19.0852 -30.6061
4 40.7325 19.0085 -48.879
4 39.3747 17.6507 -47.5213
1 39.4457 23.0468 -29.3498
1 42.2391 20.372 -29.3476
4 42.0902 20.3663 -47.5213
4 43.448 16.293 -48.879
1 43.5365 21.8105 -30.6653
1 46.2628 19.0386 -30.6528
4 46.1635 19.0085 -48.879
4 44.8058 17.6507 -47.5213
1 45.015 23.0171 -29.4289
1 47.7222 20.3268 -29.3942
4 47.5213 20.3663 -47.5213
4 48.879 16.293 -48.879
1 49.0561 21.8017 -30.6568
1 51.8821 19.3567 -30.6802
4 51.5945 19.0085 -48.879
4 50.2368 17.6507 -47.5213
1 50.547 23.178 -29.4802
1 53.4326 21.0339 -30.3977
4 52.9522 20.3663 -47.5213
4 0 21.724 -48.879
3 2.34959 24.0627 -30.6835
4 2.7155 24.4395 -48.879
4 1.35775 23.0817 -47.5213
3 0.661534 28.5784 -29.4655
3 3.55211 25.6332 -29.5472
4 4.07325 25.7973 -47.5213
4 5.431 21.724 -48.879
3 5.19139 26.9793 -30.7102
3 8.12947 24.3956 -30.5916
4 8.1465 24.4395 -48.879
4 6.78875 23.0817 -47.5213
3 6.49479 28.3282 -29.3906
3 9.40187 25.753 -29.2759
4 9.50425 25.7973 -47.5213
4 10.862 21.724 -48.879
3 10.7964 27.0749 -30.563
3 13.5625 24.437 -30.5631
4 13.5775 24.4395 -48.879
4 12.2197 23.0817 -47.5213
3 12.1343 28.3413 -29.2475
3 14.822 25.772 -29.3067
4 14.9352 25.7973 -47.5213
4 16.293 21.724 -48.879
3 16.324 27.1519 -30.5506
1 18.9792 24.4012 -30.6607
4 19.0085 24.4395 -48.879
4 17.6507 23.0817 -47.5213
1 17.6699 28.4874 -29.2408
1 20.2967 25.7761 -29.3706
4 20.3663 25.7973 -47.5213
4 21.724 21.724 -48.879
1 21.7357 27.1454 -30.5511
1 24.4174 24.3603 -30.6031
4 24.4395 24.4395 -48.879
4 23.0817 23.0817 -47.5213
1 23.1436 28.4708 -29.2259
1 25.7669 25.7507 -29.13
4 25.7973 25.7973 -47.5213
4 27.155 21.724 -48.879
1 27.1301 27.1319 -30.5529
1 29.8304 24.4138 -30.552
4 29.8705 24.4395 -48.879
4 28.5128 23.0817 -47.5213
1 28.3826 28.418 -29.2144
1 31.1516 25.8079 -29.2473
4 31.2282 25.7973 -47.5213
4 32.586 21.724 -48.879
1 32.498 27.0714 -30.687