15352
 Atoms. Timestep: 60000
4 0 0 -54.31
4 0 2.7155 -51.5945
4 2.7155 0 -51.5945
4 2.7155 2.7155 -54.31
4 1.35775 1.35775 -52.9522
4 1.35775 4.07325 -50.2368
4 4.07325 1.35775 -50.2368
4 4.07325 4.07325 -52.9522
4 5.431 0 -54.31
4 5.431 2.7155 -51.5945
4 8.1465 0 -51.5945
4 8.1465 2.7155 -54.31
4 6.78875 1.35775 -52.9522
4 6.78875 4.07325 -50.2368
4 9.50425 1.35775 -50.2368
4 9.50425 4.07325 -52.9522
4 10.862 0 -54.31
4 10.862 2.7155 -51.5945
4 13.5775 0 -51.5945
4 13.5775 2.7155 -54.31
4 12.2197 1.35775 -52.9522
4 12.2197 4.07325 -50.2368
4 14.9352 1.35775 -50.2368
4 14.9352 4.07325 -52.9522
4 16.293 0 -54.31
4 16.293 2.7155 -51.5945
4 19.0085 0 -51.5945
4 19.0085 2.7155 -54.31
4 17.6507 1.35775 -52.9522
4 17.6507 4.07325 -50.2368
4 20.3663 1.35775 -50.2368
4 20.3663 4.07325 -52.9522
4 21.724 0 -54.31
4 21.724 2.7155 -51.5945
4 24.4395 0 -51.5945
4 24.4395 2.7155 -54.31
4 23.0817 1.35775 -52.9522
4 23.0817 4.07325 -50.2368
4 25.7973 1.35775 -50.2368
4 25.7973 4.07325 -52.9522
4 27.155 0 -54.31
4 27.155 2.7155 -51.5945
4 29.8705 0 -51.5945
4 29.8705 2.7155 -54.31
4 28.5128 1.35775 -52.9522
4 28.5128 4.07325 -50.2368
4 31.2282 1.35775 -50.2368
4 31.2282 4.07325 -52.9522
4 32.586 0 -54.31
4 32.586 2.7155 -51.5945
4 35.3015 0 -51.5945
4 35.3015 2.7155 -54.31
4 33.9438 1.35775 -52.9522
4 33.9438 4.07325 -50.2368
4 36.6593 1.35775 -50.2368
4 36.6593 4.07325 -52.9522
4 38.017 0 -54.31
4 38.017 2.7155 -51.5945
4 40.7325 0 -51.5945
4 40.7325 2.7155 -54.31
4 39.3747 1.35775 -52.9522
4 39.3747 4.07325 -50.2368
4 42.0902 1.35775 -50.2368
4 42.0902 4.07325 -52.9522
4 43.448 0 -54.31
4 43.448 2.7155 -51.5945
4 46.1635 0 -51.5945
4 46.1635 2.7155 -54.31
4 44.8058 1.35775 -52.9522
4 44.8058 4.07325 -50.2368
4 47.5213 1.35775 -50.2368
4 47.5213 4.07325 -52.9522
4 48.879 0 -54.31
4 48.879 2.7155 -51.5945
4 51.5945 0 -51.5945
4 51.5945 2.7155 -54.31
4 50.2368 1.35775 -52.9522
4 50.2368 4.07325 -50.2368
4 52.9522 1.35775 -50.2368
4 52.9522 4.07325 -52.9522
4 0 5.431 -54.31
4 0 8.1465 -51.5945
4 2.7155 5.431 -51.5945
4 2.7155 8.1465 -54.31
4 1.35775 6.78875 -52.9522
4 1.35775 9.50425 -50.2368
4 4.07325 6.78875 -50.2368
4 4.07325 9.50425 -52.9522
4 5.431 5.431 -54.31
4 5.431 8.1465 -51.5945
4 8.1465 5.431 -51.5945
4 8.1465 8.1465 -54.31
4 6.78875 6.78875 -52.9522
4 6.78875 9.50425 -50.2368
4 9.50425 6.78875 -50.2368
4 9.50425 9.50425 -52.9522
4 10.862 5.431 -54.31
4 10.862 8.1465 -51.5945
4 13.5775 5.431 -51.5945
4 13.5775 8.1465 -54.31
4 12.2197 6.78875 -52.9522
4 12.2197 9.50425 -50.2368
4 14.9352 6.78875 -50.2368
4 14.9352 9.50425 -52.9522
4 16.293 5.431 -54.31
4 16.293 8.1465 -51.5945
4 19.0085 5.431 -51.5945
4 19.0085 8.1465 -54.31
4 17.6507 6.78875 -52.9522
4 17.6507 9.50425 -50.2368
4 20.3663 6.78875 -50.2368
4 20.3663 9.50425 -52.9522
4 21.724 5.431 -54.31
4 21.724 8.1465 -51.5945
4 24.4395 5.431 -51.5945
4 24.4395 8.1465 -54.31
4 23.0817 6.78875 -52.9522
4 23.0817 9.50425 -50.2368
4 25.7973 6.78875 -50.2368
4 25.7973 9.50425 -52.9522
4 27.155 5.431 -54.31
4 27.155 8.1465 -51.5945
4 29.8705 5.431 -51.5945
4 29.8705 8.1465 -54.31
4 28.5128 6.78875 -52.9522
4 28.5128 9.50425 -50.2368
4 31.2282 6.78875 -50.2368
4 31.2282 9.50425 -52.9522
4 32.586 5.431 -54.31
4 32.586 8.1465 -51.5945
4 35.3015 5.431 -51.5945
4 35.3015 8.1465 -54.31
4 33.9438 6.78875 -52.9522
4 33.9438 9.50425 -50.2368
4 36.6593 6.78875 -50.2368
4 36.6593 9.50425 -52.9522
4 38.017 5.431 -54.31
4 38.017 8.1465 -51.5945
4 40.7325 5.431 -51.5945
4 40.7325 8.1465 -54.31
4 39.3747 6.78875 -52.9522
4 39.3747 9.50425 -50.2368
4 42.0902 6.78875 -50.2368
4 42.0902 9.50425 -52.9522
4 43.448 5.431 -54.31
4 43.448 8.1465 -51.5945
4 46.1635 5.431 -51.5945
4 46.1635 8.1465 -54.31
4 44.8058 6.78875 -52.9522
4 44.8058 9.50425 -50.2368
4 47.5213 6.78875 -50.2368
4 47.5213 9.50425 -52.9522
4 48.879 5.431 -54.31
4 48.879 8.1465 -51.5945
4 51.5945 5.431 -51.5945
4 51.5945 8.1465 -54.31
4 50.2368 6.78875 -52.9522
4 50.2368 9.50425 -50.2368
4 52.9522 6.78875 -50.2368
4 52.9522 9.50425 -52.9522
4 0 10.862 -54.31
4 0 13.5775 -51.5945
4 2.7155 10.862 -51.5945
4 2.7155 13.5775 -54.31
4 1.35775 12.2197 -52.9522
4 1.35775 14.9352 -50.2368
4 4.07325 12.2197 -50.2368
4 4.07325 14.9352 -52.9522
4 5.431 10.862 -54.31
4 5.431 13.5775 -51.5945
4 8.1465 10.862 -51.5945
4 8.1465 13.5775 -54.31
4 6.78875 12.2197 -52.9522
4 6.78875 14.9352 -50.2368
4 9.50425 12.2197 -50.2368
4 9.50425 14.9352 -52.9522
4 10.862 10.862 -54.31
4 10.862 13.5775 -51.5945
4 13.5775 10.862 -51.5945
4 13.5775 13.5775 -54.31
4 12.2197 12.2197 -52.9522
4 12.2197 14.9352 -50.2368
4 14.9352 12.2197 -50.2368
4 14.9352 14.9352 -52.9522
4 16.293 10.862 -54.31
4 16.293 13.5775 -51.5945
4 19.0085 10.862 -51.5945
4 19.0085 13.5775 -54.31
4 17.6507 12.2197 -52.9522
4 17.6507 14.9352 -50.2368
4 20.3663 12.2197 -50.2368
4 20.3663 14.9352 -52.9522
4 21.724 10.862 -54.31
4 21.724 13.5775 -51.5945
4 24.4395 10.862 -51.5945
4 24.4395 13.5775 -54.31
4 23.0817 12.2197 -52.9522
4 23.0817 14.9352 -50.2368
4 25.7973 12.2197 -50.2368
4 25.7973 14.9352 -52.9522
4 27.155 10.862 -54.31
4 27.155 13.5775 -51.5945
4 29.8705 10.862 -51.5945
4 29.8705 13.5775 -54.31
4 28.5128 12.2197 -52.9522
4 28.5128 14.9352 -50.2368
4 31.2282 12.2197 -50.2368
4 31.2282 14.9352 -52.9522
4 32.586 10.862 -54.31
4 32.586 13.5775 -51.5945
4 35.3015 10.862 -51.5945
4 35.3015 13.5775 -54.31
4 33.9438 12.2197 -52.9522
4 33.9438 14.9352 -50.2368
4 36.6593 12.2197 -50.2368
4 36.6593 14.9352 -52.9522
4 38.017 10.862 -54.31
4 38.017 13.5775 -51.5945
4 40.7325 10.862 -51.5945
4 40.7325 13.5775 -54.31
4 39.3747 12.2197 -52.9522
4 39.3747 14.9352 -50.2368
4 42.0902 12.2197 -50.2368
4 42.0902 14.9352 -52.9522
4 43.448 10.862 -54.31
4 43.448 13.5775 -51.5945
4 46.1635 10.862 -51.5945
4 46.1635 13.5775 -54.31
4 44.8058 12.2197 -52.9522
4 44.8058 14.9352 -50.2368
4 47.5213 12.2197 -50.2368
4 47.5213 14.9352 -52.9522
4 48.879 10.862 -54.31
4 48.879 13.5775 -51.5945
4 51.5945 10.862 -51.5945
4 51.5945 13.5775 -54.31
4 50.2368 12.2197 -52.9522
4 50.2368 14.9352 -50.2368
4 52.9522 12.2197 -50.2368
4 52.9522 14.9352 -52.9522
4 0 16.293 -54.31
4 0 19.0085 -51.5945
4 2.7155 16.293 -51.5945
4 2.7155 19.0085 -54.31
4 1.35775 17.6507 -52.9522
4 1.35775 20.3663 -50.2368
4 4.07325 17.6507 -50.2368
4 4.07325 20.3663 -52.9522
4 5.431 16.293 -54.31
4 5.431 19.0085 -51.5945
4 8.1465 16.293 -51.5945
4 8.1465 19.0085 -54.31
4 6.78875 17.6507 -52.9522
4 6.78875 20.3663 -50.2368
4 9.50425 17.6507 -50.2368
4 9.50425 20.3663 -52.9522
4 10.862 16.293 -54.31
4 10.862 19.0085 -51.5945
4 13.5775 16.293 -51.5945
4 13.5775 19.0085 -54.31
4 12.2197 17.6507 -52.9522
4 12.2197 20.3663 -50.2368
4 14.9352 17.6507 -50.2368
4 14.9352 20.3663 -52.9522
4 16.293 16.293 -54.31
4 16.293 19.0085 -51.5945
4 19.0085 16.293 -51.5945
4 19.0085 19.0085 -54.31
4 17.6507 17.6507 -52.9522
4 17.6507 20.3663 -50.2368
4 20.3663 17.6507 -50.2368
4 20.3663 20.3663 -52.9522
4 21.724 16.293 -54.31
4 21.724 19.0085 -51.5945
4 24.4395 16.293 -51.5945
4 24.4395 19.0085 -54.31
4 23.0817 17.6507 -52.9522
4 23.0817 20.3663 -50.2368
4 25.7973 17.6507 -50.2368
4 25.7973 20.3663 -52.9522
4 27.155 16.293 -54.31
4 27.155 19.0085 -51.5945
4 29.8705 16.293 -51.5945
4 29.8705 19.0085 -54.31
4 28.5128 17.6507 -52.9522
4 28.5128 20.3663 -50.2368
4 31.2282 17.6507 -50.2368
4 31.2282 20.3663 -52.9522
4 32.586 16.293 -54.31
4 32.586 19.0085 -51.5945
4 35.3015 16.293 -51.5945
4 35.3015 19.0085 -54.31
4 33.9438 17.6507 -52.9522
4 33.9438 20.3663 -50.2368
4 36.6593 17.6507 -50.2368
4 36.6593 20.3663 -52.9522
4 38.017 16.293 -54.31
4 38.017 19.0085 -51.5945
4 40.7325 16.293 -51.5945
4 40.7325 19.0085 -54.31
4 39.3747 17.6507 -52.9522
4 39.3747 20.3663 -50.2368
4 42.0902 17.6507 -50.2368
4 42.0902 20.3663 -52.9522
4 43.448 16.293 -54.31
4 43.448 19.0085 -51.5945
4 46.1635 16.293 -51.5945
4 46.1635 19.0085 -54.31
4 44.8058 17.6507 -52.9522
4 44.8058 20.3663 -50.2368
4 47.5213 17.6507 -50.2368
4 47.5213 20.3663 -52.9522
4 48.879 16.293 -54.31
4 48.879 19.0085 -51.5945
4 51.5945 16.293 -51.5945
4 51.5945 19.0085 -54.31
4 50.2368 17.6507 -52.9522
4 50.2368 20.3663 -50.2368
4 52.9522 17.6507 -50.2368
4 52.9522 20.3663 -52.9522
4 0 21.724 -54.31
4 0 24.4395 -51.5945
4 2.7155 21.724 -51.5945
4 2.7155 24.4395 -54.31
4 1.35775 23.0817 -52.9522
4 1.35775 25.7973 -50.2368
4 4.07325 23.0817 -50.2368
4 4.07325 25.7973 -52.9522
4 5.431 21.724 -54.31
4 5.431 24.4395 -51.5945
4 8.1465 21.724 -51.5945
4 8.1465 24.4395 -54.31
4 6.78875 23.0817 -52.9522
4 6.78875 25.7973 -50.2368
4 9.50425 23.0817 -50.2368
4 9.50425 25.7973 -52.9522
4 10.862 21.724 -54.31
4 10.862 24.4395 -51.5945
4 13.5775 21.724 -51.5945
4 13.5775 24.4395 -54.31
4 12.2197 23.0817 -52.9522
4 12.2197 25.7973 -50.2368
4 14.9352 23.0817 -50.2368
4 14.9352 25.7973 -52.9522
4 16.293 21.724 -54.31
4 16.293 24.4395 -51.5945
4 19.0085 21.724 -51.5945
4 19.0085 24.4395 -54.31
4 17.6507 23.0817 -52.9522
4 17.6507 25.7973 -50.2368
4 20.3663 23.0817 -50.2368
4 20.3663 25.7973 -52.9522
4 21.724 21.724 -54.31
4 21.724 24.4395 -51.5945
4 24.4395 21.724 -51.5945
4 24.4395 24.4395 -54.31
4 23.0817 23.0817 -52.9522
4 23.0817 25.7973 -50.2368
4 25.7973 23.0817 -50.2368
4 25.7973 25.7973 -52.9522
4 27.155 21.724 -54.31
4 27.155 24.4395 -51.5945
4 29.8705 21.724 -51.5945
4 29.8705 24.4395 -54.31
4 28.5128 23.0817 -52.9522
4 28.5128 25.7973 -50.2368
4 31.2282 23.0817 -50.2368
4 31.2282 25.7973 -52.9522
4 32.586 21.724 -54.31
4 32.586 24.4395 -51.5945
4 35.3015 21.724 -51.5945
4 35.3015 24.4395 -54.31
4 33.9438 23.0817 -52.9522
4 33.9438 25.7973 -50.2368
4 36.6593 23.0817 -50.2368
4 36.6593 25.7973 -52.9522
4 38.017 21.724 -54.31
4 38.017 24.4395 -51.5945
4 40.7325 21.724 -51.5945
4 40.7325 24.4395 -54.31
4 39.3747 23.0817 -52.9522
4 39.3747 25.7973 -50.2368
4 42.0902 23.0817 -50.2368
4 42.0902 25.7973 -52.9522
4 43.448 21.724 -54.31
4 43.448 24.4395 -51.5945
4 46.1635 21.724 -51.5945
4 46.1635 24.4395 -54.31
4 44.8058 23.0817 -52.9522
4 44.8058 25.7973 -50.2368
4 47.5213 23.0817 -50.2368
4 47.5213 25.7973 -52.9522
4 48.879 21.724 -54.31
4 48.879 24.4395 -51.5945
4 51.5945 21.724 -51.5945
4 51.5945 24.4395 -54.31
4 50.2368 23.0817 -52.9522
4 50.2368 25.7973 -50.2368
4 52.9522 23.0817 -50.2368
4 52.9522 25.7973 -52.9522
4 0 27.155 -54.31
4 0 29.8705 -51.5945
4 2.7155 27.155 -51.5945
4 2.7155 29.8705 -54.31
4 1.35775 28.5128 -52.9522
4 1.35775 31.2282 -50.2368
4 4.07325 28.5128 -50.2368
4 4.07325 31.2282 -52.9522
4 5.431 27.155 -54.31
4 5.431 29.8705 -51.5945
4 8.1465 27.155 -51.5945
4 8.1465 29.8705 -54.31
4 6.78875 28.5128 -52.9522
4 6.78875 31.2282 -50.2368
4 9.50425 28.5128 -50.2368
4 9.50425 31.2282 -52.9522
4 10.862 27.155 -54.31
4 10.862 29.8705 -51.5945
4 13.5775 27.155 -51.5945
4 13.5775 29.8705 -54.31
4 12.2197 28.5128 -52.9522
4 12.2197 31.2282 -50.2368
4 14.9352 28.5128 -50.2368
4 14.9352 31.2282 -52.9522
4 16.293 27.155 -54.31
4 16.293 29.8705 -51.5945
4 19.0085 27.155 -51.5945
4 19.0085 29.8705 -54.31
4 17.6507 28.5128 -52.9522
4 17.6507 31.2282 -50.2368
4 20.3663 28.5128 -50.2368
4 20.3663 31.2282 -52.9522
4 21.724 27.155 -54.31
4 21.724 29.8705 -51.5945
4 24.4395 27.155 -51.5945
4 24.4395 29.8705 -54.31
4 23.0817 28.5128 -52.9522
4 23.0817 31.2282 -50.2368
4 25.7973 28.5128 -50.2368
4 25.7973 31.2282 -52.9522
4 27.155 27.155 -54.31
4 27.155 29.8705 -51.5945
4 29.8705 27.155 -51.5945
4 29.8705 29.8705 -54.31
4 28.5128 28.5128 -52.9522
4 28.5128 31.2282 -50.2368
4 31.2282 28.5128 -50.2368
4 31.2282 31.2282 -52.9522
4 32.586 27.155 -54.31
4 32.586 29.8705 -51.5945
4 35.3015 27.155 -51.5945
4 35.3015 29.8705 -54.31
4 33.9438 28.5128 -52.9522
4 33.9438 31.2282 -50.2368
4 36.6593 28.5128 -50.2368
4 36.6593 31.2282 -52.9522
4 38.017 27.155 -54.31
4 38.017 29.8705 -51.5945
4 40.7325 27.155 -51.5945
4 40.7325 29.8705 -54.31
4 39.3747 28.5128 -52.9522
4 39.3747 31.2282 -50.2368
4 42.0902 28.5128 -50.2368
4 42.0902 31.2282 -52.9522
4 43.448 27.155 -54.31
4 43.448 29.8705 -51.5945
4 46.1635 27.155 -51.5945
4 46.1635 29.8705 -54.31
4 44.8058 28.5128 -52.9522
4 44.8058 31.2282 -50.2368
4 47.5213 28.5128 -50.2368
4 47.5213 31.2282 -52.9522
4 48.879 27.155 -54.31
4 48.879 29.8705 -51.5945
4 51.5945 27.155 -51.5945
4 51.5945 29.8705 -54.31
4 50.2368 28.5128 -52.9522
4 50.2368 31.2282 -50.2368
4 52.9522 28.5128 -50.2368
4 52.9522 31.2282 -52.9522
4 0 32.586 -54.31
4 0 35.3015 -51.5945
4 2.7155 32.586 -51.5945
4 2.7155 35.3015 -54.31
4 1.35775 33.9438 -52.9522
4 1.35775 36.6593 -50.2368
4 4.07325 33.9438 -50.2368
4 4.07325 36.6593 -52.9522
4 5.431 32.586 -54.31
4 5.431 35.3015 -51.5945
4 8.1465 32.586 -51.5945
4 8.1465 35.3015 -54.31
4 6.78875 33.9438 -52.9522
4 6.78875 36.6593 -50.2368
4 9.50425 33.9438 -50.2368
4 9.50425 36.6593 -52.9522
4 10.862 32.586 -54.31
4 10.862 35.3015 -51.5945
4 13.5775 32.586 -51.5945
4 13.5775 35.3015 -54.31
4 12.2197 33.9438 -52.9522
4 12.2197 36.6593 -50.2368
4 14.9352 33.9438 -50.2368
4 14.9352 36.6593 -52.9522
4 16.293 32.586 -54.31
4 16.293 35.3015 -51.5945
4 19.0085 32.586 -51.5945
4 19.0085 35.3015 -54.31
4 17.6507 33.9438 -52.9522
4 17.6507 36.6593 -50.2368
4 20.3663 33.9438 -50.2368
4 20.3663 36.6593 -52.9522
4 21.724 32.586 -54.31
4 21.724 35.3015 -51.5945
4 24.4395 32.586 -51.5945
4 24.4395 35.3015 -54.31
4 23.0817 33.9438 -52.9522
4 23.0817 36.6593 -50.2368
4 25.7973 33.9438 -50.2368
4 25.7973 36.6593 -52.9522
4 27.155 32.586 -54.31
4 27.155 35.3015 -51.5945
4 29.8705 32.586 -51.5945
4 29.8705 35.3015 -54.31
4 28.5128 33.9438 -52.9522
4 28.5128 36.6593 -50.2368
4 31.2282 33.9438 -50.2368
4 31.2282 36.6593 -52.9522
4 32.586 32.586 -54.31
4 32.586 35.3015 -51.5945
4 35.3015 32.586 -51.5945
4 35.3015 35.3015 -54.31
4 33.9438 33.9438 -52.9522
4 33.9438 36.6593 -50.2368
4 36.6593 33.9438 -50.2368
4 36.6593 36.6593 -52.9522
4 38.017 32.586 -54.31
4 38.017 35.3015 -51.5945
4 40.7325 32.586 -51.5945
4 40.7325 35.3015 -54.31
4 39.3747 33.9438 -52.9522
4 39.3747 36.6593 -50.2368
4 42.0902 33.9438 -50.2368
4 42.0902 36.6593 -52.9522
4 43.448 32.586 -54.31
4 43.448 35.3015 -51.5945
4 46.1635 32.586 -51.5945
4 46.1635 35.3015 -54.31
4 44.8058 33.9438 -52.9522
4 44.8058 36.6593 -50.2368
4 47.5213 33.9438 -50.2368
4 47.5213 36.6593 -52.9522
4 48.879 32.586 -54.31
4 48.879 35.3015 -51.5945
4 51.5945 32.586 -51.5945
4 51.5945 35.3015 -54.31
4 50.2368 33.9438 -52.9522
4 50.2368 36.6593 -50.2368
4 52.9522 33.9438 -50.2368
4 52.9522 36.6593 -52.9522
4 0 38.017 -54.31
4 0 40.7325 -51.5945
4 2.7155 38.017 -51.5945
4 2.7155 40.7325 -54.31
4 1.35775 39.3747 -52.9522
4 1.35775 42.0902 -50.2368
4 4.07325 39.3747 -50.2368
4 4.07325 42.0902 -52.9522
4 5.431 38.017 -54.31
4 5.431 40.7325 -51.5945
4 8.1465 38.017 -51.5945
4 8.1465 40.7325 -54.31
4 6.78875 39.3747 -52.9522
4 6.78875 42.0902 -50.2368
4 9.50425 39.3747 -50.2368
4 9.50425 42.0902 -52.9522
4 10.862 38.017 -54.31
4 10.862 40.7325 -51.5945
4 13.5775 38.017 -51.5945
4 13.5775 40.7325 -54.31
4 12.2197 39.3747 -52.9522
4 12.2197 42.0902 -50.2368
4 14.9352 39.3747 -50.2368
4 14.9352 42.0902 -52.9522
4 16.293 38.017 -54.31
4 16.293 40.7325 -51.5945
4 19.0085 38.017 -51.5945
4 19.0085 40.7325 -54.31
4 17.6507 39.3747 -52.9522
4 17.6507 42.0902 -50.2368
4 20.3663 39.3747 -50.2368
4 20.3663 42.0902 -52.9522
4 21.724 38.017 -54.31
4 21.724 40.7325 -51.5945
4 24.4395 38.017 -51.5945
4 24.4395 40.7325 -54.31
4 23.0817 39.3747 -52.9522
4 23.0817 42.0902 -50.2368
4 25.7973 39.3747 -50.2368
4 25.7973 42.0902 -52.9522
4 27.155 38.017 -54.31
4 27.155 40.7325 -51.5945
4 29.8705 38.017 -51.5945
4 29.8705 40.7325 -54.31
4 28.5128 39.3747 -52.9522
4 28.5128 42.0902 -50.2368
4 31.2282 39.3747 -50.2368
4 31.2282 42.0902 -52.9522
4 32.586 38.017 -54.31
4 32.586 40.7325 -51.5945
4 35.3015 38.017 -51.5945
4 35.3015 40.7325 -54.31
4 33.9438 39.3747 -52.9522
4 33.9438 42.0902 -50.2368
4 36.6593 39.3747 -50.2368
4 36.6593 42.0902 -52.9522
4 38.017 38.017 -54.31
4 38.017 40.7325 -51.5945
4 40.7325 38.017 -51.5945
4 40.7325 40.7325 -54.31
4 39.3747 39.3747 -52.9522
4 39.3747 42.0902 -50.2368
4 42.0902 39.3747 -50.2368
4 42.0902 42.0902 -52.9522
4 43.448 38.017 -54.31
4 43.448 40.7325 -51.5945
4 46.1635 38.017 -51.5945
4 46.1635 40.7325 -54.31
4 44.8058 39.3747 -52.9522
4 44.8058 42.0902 -50.2368
4 47.5213 39.3747 -50.2368
4 47.5213 42.0902 -52.9522
4 48.879 38.017 -54.31
4 48.879 40.7325 -51.5945
4 51.5945 38.017 -51.5945
4 51.5945 40.7325 -54.31
4 50.2368 39.3747 -52.9522
4 50.2368 42.0902 -50.2368
4 52.9522 39.3747 -50.2368
4 52.9522 42.0902 -52.9522
4 0 43.448 -54.31
4 0 46.1635 -51.5945
4 2.7155 43.448 -51.5945
4 2.7155 46.1635 -54.31
4 1.35775 44.8058 -52.9522
4 1.35775 47.5213 -50.2368
4 4.07325 44.8058 -50.2368
4 4.07325 47.5213 -52.9522
4 5.431 43.448 -54.31
4 5.431 46.1635 -51.5945
4 8.1465 43.448 -51.5945
4 8.1465 46.1635 -54.31
4 6.78875 44.8058 -52.9522
4 6.78875 47.5213 -50.2368
4 9.50425 44.8058 -50.2368
4 9.50425 47.5213 -52.9522
4 10.862 43.448 -54.31
4 10.862 46.1635 -51.5945
4 13.5775 43.448 -51.5945
4 13.5775 46.1635 -54.31
4 12.2197 44.8058 -52.9522
4 12.2197 47.5213 -50.2368
4 14.9352 44.8058 -50.2368
4 14.9352 47.5213 -52.9522
4 16.293 43.448 -54.31
4 16.293 46.1635 -51.5945
4 19.0085 43.448 -51.5945
4 19.0085 46.1635 -54.31
4 17.6507 44.8058 -52.9522
4 17.6507 47.5213 -50.2368
4 20.3663 44.8058 -50.2368
4 20.3663 47.5213 -52.9522
4 21.724 43.448 -54.31
4 21.724 46.1635 -51.5945
4 24.4395 43.448 -51.5945
4 24.4395 46.1635 -54.31
4 23.0817 44.8058 -52.9522
4 23.0817 47.5213 -50.2368
4 25.7973 44.8058 -50.2368
4 25.7973 47.5213 -52.9522
4 27.155 43.448 -54.31
4 27.155 46.1635 -51.5945
4 29.8705 43.448 -51.5945
4 29.8705 46.1635 -54.31
4 28.5128 44.8058 -52.9522
4 28.5128 47.5213 -50.2368
4 31.2282 44.8058 -50.2368
4 31.2282 47.5213 -52.9522
4 32.586 43.448 -54.31
4 32.586 46.1635 -51.5945
4 35.3015 43.448 -51.5945
4 35.3015 46.1635 -54.31
4 33.9438 44.8058 -52.9522
4 33.9438 47.5213 -50.2368
4 36.6593 44.8058 -50.2368
4 36.6593 47.5213 -52.9522
4 38.017 43.448 -54.31
4 38.017 46.1635 -51.5945
4 40.7325 43.448 -51.5945
4 40.7325 46.1635 -54.31
4 39.3747 44.8058 -52.9522
4 39.3747 47.5213 -50.2368
4 42.0902 44.8058 -50.2368
4 42.0902 47.5213 -52.9522
4 43.448 43.448 -54.31
4 43.448 46.1635 -51.5945
4 46.1635 43.448 -51.5945
4 46.1635 46.1635 -54.31
4 44.8058 44.8058 -52.9522
4 44.8058 47.5213 -50.2368
4 47.5213 44.8058 -50.2368
4 47.5213 47.5213 -52.9522
4 48.879 43.448 -54.31
4 48.879 46.1635 -51.5945
4 51.5945 43.448 -51.5945
4 51.5945 46.1635 -54.31
4 50.2368 44.8058 -52.9522
4 50.2368 47.5213 -50.2368
4 52.9522 44.8058 -50.2368
4 52.9522 47.5213 -52.9522
4 0 48.879 -54.31
4 0 51.5945 -51.5945
4 2.7155 48.879 -51.5945
4 2.7155 51.5945 -54.31
4 1.35775 50.2368 -52.9522
4 1.35775 52.9522 -50.2368
4 4.07325 50.2368 -50.2368
4 4.07325 52.9522 -52.9522
4 5.431 48.879 -54.31
4 5.431 51.5945 -51.5945
4 8.1465 48.879 -51.5945
4 8.1465 51.5945 -54.31
4 6.78875 50.2368 -52.9522
4 6.78875 52.9522 -50.2368
4 9.50425 50.2368 -50.2368
4 9.50425 52.9522 -52.9522
4 10.862 48.879 -54.31
4 10.862 51.5945 -51.5945
4 13.5775 48.879 -51.5945
4 13.5775 51.5945 -54.31
4 12.2197 50.2368 -52.9522
4 12.2197 52.9522 -50.2368
4 14.9352 50.2368 -50.2368
4 14.9352 52.9522 -52.9522
4 16.293 48.879 -54.31
4 16.293 51.5945 -51.5945
4 19.0085 48.879 -51.5945
4 19.0085 51.5945 -54.31
4 17.6507 50.2368 -52.9522
4 17.6507 52.9522 -50.2368
4 20.3663 50.2368 -50.2368
4 20.3663 52.9522 -52.9522
4 21.724 48.879 -54.31
4 21.724 51.5945 -51.5945
4 24.4395 48.879 -51.5945
4 24.4395 51.5945 -54.31
4 23.0817 50.2368 -52.9522
4 23.0817 52.9522 -50.2368
4 25.7973 50.2368 -50.2368
4 25.7973 52.9522 -52.9522
4 27.155 48.879 -54.31
4 27.155 51.5945 -51.5945
4 29.8705 48.879 -51.5945
4 29.8705 51.5945 -54.31
4 28.5128 50.2368 -52.9522
4 28.5128 52.9522 -50.2368
4 31.2282 50.2368 -50.2368
4 31.2282 52.9522 -52.9522
4 32.586 48.879 -54.31
4 32.586 51.5945 -51.5945
4 35.3015 48.879 -51.5945
4 35.3015 51.5945 -54.31
4 33.9438 50.2368 -52.9522
4 33.9438 52.9522 -50.2368
4 36.6593 50.2368 -50.2368
4 36.6593 52.9522 -52.9522
4 38.017 48.879 -54.31
4 38.017 51.5945 -51.5945
4 40.7325 48.879 -51.5945
4 40.7325 51.5945 -54.31
4 39.3747 50.2368 -52.9522
4 39.3747 52.9522 -50.2368
4 42.0902 50.2368 -50.2368
4 42.0902 52.9522 -52.9522
4 43.448 48.879 -54.31
4 43.448 51.5945 -51.5945
4 46.1635 48.879 -51.5945
4 46.1635 51.5945 -54.31
4 44.8058 50.2368 -52.9522
4 44.8058 52.9522 -50.2368
4 47.5213 50.2368 -50.2368
4 47.5213 52.9522 -52.9522
4 48.879 48.879 -54.31
4 48.879 51.5945 -51.5945
4 51.5945 48.879 -51.5945
4 51.5945 51.5945 -54.31
4 50.2368 50.2368 -52.9522
4 50.2368 52.9522 -50.2368
4 52.9522 50.2368 -50.2368
4 52.9522 52.9522 -52.9522
4 0 0 -48.879
3 2.58557 2.63188 -39.3873
4 2.7155 2.7155 -48.879
4 1.35775 1.35775 -47.5213
3 1.29022 6.64972 -38.1476
3 3.96154 3.94004 -38.0169
4 4.07325 4.07325 -47.5213
4 5.431 0 -48.879
3 5.39291 5.29388 -39.3232
3 8.04392 2.618 -39.2985
4 8.1465 2.7155 -48.879
4 6.78875 1.35775 -47.5213
3 6.71354 6.62221 -37.9268
3 9.50685 3.926 -37.9858
4 9.50425 4.07325 -47.5213
4 10.862 0 -48.879
3 10.8663 5.34051 -39.3898
3 13.5341 2.63809 -39.2982
4 13.5775 2.7155 -48.879
4 12.2197 1.35775 -47.5213
3 12.178 6.72924 -37.9336
3 14.863 3.94747 -37.8786
4 14.9352 4.07325 -47.5213
4 16.293 0 -48.879
3 16.2309 5.39596 -39.2089
1 18.9523 2.72168 -39.2653
4 19.0085 2.7155 -48.879
4 17.6507 1.35775 -47.5213
1 17.6228 6.78342 -37.8929
1 20.3189 4.04982 -37.9027
4 20.3663 4.07325 -47.5213
4 21.724 0 -48.879
1 21.6538 5.43173 -39.3137
1 24.4741 2.70013 -39.3064
4 24.4395 2.7155 -48.879
4 23.0817 1.35775 -47.5213
1 23.0956 6.68112 -37.9865
1 25.877 3.95329 -37.9038
4 25.7973 4.07325 -47.5213
4 27.155 0 -48.879
1 27.0943 5.38306 -39.3394
1 29.8581 2.62782 -39.3876
4 29.8705 2.7155 -48.879
4 28.5128 1.35775 -47.5213
1 28.4076 6.65281 -37.9129
1 31.1948 4.00214 -37.9586
4 31.2282 4.07325 -47.5213
4 32.586 0 -48.879
1 32.4642 5.36687 -39.3833
1 35.252 2.73495 -39.3117
4 35.3015 2.7155 -48.879
4 33.9438 1.35775 -47.5213
1 33.8193 6.71584 -37.9227
1 36.5952 4.02987 -37.8686
4 36.6593 4.07325 -47.5213
4 38.017 0 -48.879
1 37.9473 5.30877 -39.2639
1 40.703 2.69292 -39.2577
4 40.7325 2.7155 -48.879
4 39.3747 1.35775 -47.5213
1 39.3875 6.61178 -37.8737
1 42.0543 3.92533 -37.802
4 42.0902 4.07325 -47.5213
4 43.448 0 -48.879
1 43.3617 5.33629 -39.1572
1 46.1281 2.67391 -39.2938
4 46.1635 2.7155 -48.879
4 44.8058 1.35775 -47.5213
1 44.7654 6.64373 -37.8153
1 47.5228 3.98064 -37.8892
4 47.5213 4.07325 -47.5213
4 48.879 0 -48.879
1 48.8684 5.35476 -39.3142
1 51.6367 2.77908 -39.2972
4 51.5945 2.7155 -48.879
4 50.2368 1.35775 -47.5213
1 50.2864 6.67496 -37.9643
1 53.0385 4.00152 -37.8046
4 52.9522 4.07325 -47.5213
4 0 5.431 -48.879
3 2.69112 8.06939 -39.3372
4 2.7155 8.1465 -48.879
4 1.35775 6.78875 -47.5213
3 1.1626 11.8798 -38.0157
3 3.97775 9.33476 -37.9648
4 4.07325 9.50425 -47.5213
4 5.431 5.431 -48.879
3 5.38375 10.775 -39.2295
3 8.11683 8.10375 -39.2738
4 8.1465 8.1465 -48.879
4 6.78875 6.78875 -47.5213
3 6.72024 12.146 -37.9435
3 9.49868 9.47282 -37.9363
4 9.50425 9.50425 -47.5213
4 10.862 5.431 -48.879
3 10.8753 10.8336 -39.2712
3 13.5888 8.14658 -39.3231
4 13.5775 8.1465 -48.879
4 12.2197 6.78875 -47.5213
3 12.1837 12.1055 -37.9067
3 15.0004 9.4987 -37.9085
4 14.9352 9.50425 -47.5213
4 16.293 5.431 -48.879
3 16.3455 10.8335 -39.2874
1 18.9541 8.17732 -39.265
4 19.0085 8.1465 -48.879
4 17.6507 6.78875 -47.5213
1 17.6274 12.2004 -37.8507
1 20.3696 9.49511 -37.917
4 20.3663 9.50425 -47.5213
4 21.724 5.431 -48.879
1 21.6808 10.8204 -39.2984
1 24.4619 8.14191 -39.3093
4 24.4395 8.1465 -48.879
4 23.0817 6.78875 -47.5213
1 23.043 12.1769 -37.8584
1 25.8388 9.45866 -37.9475
4 25.7973 9.50425 -47.5213
4 27.155 5.431 -48.879
1 27.1145 10.8197 -39.3552
1 29.8289 8.06627 -39.2684
4 29.8705 8.1465 -48.879
4 28.5128 6.78875 -47.5213
1 28.4475 12.159 -37.9652
1 31.2048 9.42868 -37.9543
4 31.2282 9.50425 -47.5213
4 32.586 5.431 -48.879
1 32.5104 10.8369 -39.3182
1 35.2676 8.1638 -39.22
4 35.3015 8.1465 -48.879
4 33.9438 6.78875 -47.5213
1 33.9149 12.1008 -37.9035
1 36.7369 9.41413 -37.9241
4 36.6593 9.50425 -47.5213
4 38.017 5.431 -48.879
1 37.9957 10.8592 -39.2137
1 40.6504 8.14065 -39.2377
4 40.7325 8.1465 -48.879
4 39.3747 6.78875 -47.5213
1 39.4333 12.2468 -37.8718
1 42.0518 9.49502 -37.8683
4 42.0902 9.50425 -47.5213
4 43.448 5.431 -48.879
1 43.352 10.9325 -39.268
1 46.1465 8.01742 -39.2677
4 46.1635 8.1465 -48.879
4 44.8058 6.78875 -47.5213
1 44.7074 12.1574 -37.9127
1 47.4944 9.32653 -37.8602
4 47.5213 9.50425 -47.5213
4 48.879 5.431 -48.879
1 48.7617 10.7986 -39.2466
1 51.6592 8.11393 -39.3271
4 51.5945 8.1465 -48.879
4 50.2368 6.78875 -47.5213
1 50.1728 12.1403 -37.8429
1 52.9297 9.61872 -37.8603
4 52.9522 9.50425 -47.5213
4 0 10.862 -48.879
3 2.5531 13.3691 -39.311
4 2.7155 13.5775 -48.879
4 1.35775 12.2197 -47.5213
3 1.28103 17.8179 -37.7569
3 3.92434 14.7495 -37.9441
4 4.07325 14.9352 -47.5213
4 5.431 10.862 -48.879
3 5.45625 16.2144 -39.3016
3 8.03813 13.4732 -39.3205
4 8.1465 13.5775 -48.879
4 6.78875 12.2197 -47.5213
3 6.84103 17.5687 -38.0054
3 9.44983 14.8214 -38.0054
4 9.50425 14.9352 -47.5213
4 10.862 10.862 -48.879
3 10.877 16.2327 -39.3178
3 13.4876 13.4554 -39.3173
4 13.5775 13.5775 -48.879
4 12.2197 12.2197 -47.5213
3 12.1213 17.5726 -37.9214
3 14.8039 14.7118 -37.8899
4 14.9352 14.9352 -47.5213
4 16.293 10.862 -48.879
3 16.2226 16.1786 -39.2238
1 18.9725 13.5557 -39.2767
4 19.0085 13.5775 -48.879
4 17.6507 12.2197 -47.5213
1 17.6284 17.4473 -37.8833
1 20.2485 14.9147 -37.77
4 20.3663 14.9352 -47.5213
4 21.724 10.862 -48.879
1 21.6269 16.2452 -39.2786
1 24.4221 13.5964 -39.3681
4 24.4395 13.5775 -48.879
4 23.0817 12.2197 -47.5213
1 22.9877 17.5306 -37.8254
1 25.7331 14.8951 -37.8498
4 25.7973 14.9352 -47.5213
4 27.155 10.862 -48.879
1 27.1607 16.2592 -39.249
1 29.7769 13.4521 -39.3353
4 29.8705 13.5775 -48.879
4 28.5128 12.2197 -47.5213
1 28.4854 17.6145 -37.9465
1 31.1571 14.9542 -37.954
4 31.2282 14.9352 -47.5213
4 32.586 10.862 -48.879
1 32.5537 16.2067 -39.3557
1 35.1788 13.4454 -39.2803
4 35.3015 13.5775 -48.879
4 33.9438 12.2197 -47.5213
1 33.9306 17.4767 -37.9918
1 36.5013 14.7762 -37.9635
4 36.6593 14.9352 -47.5213
4 38.017 10.862 -48.879
1 37.8978 16.2302 -39.2793
1 40.7627 13.5783 -39.3271
4 40.7325 13.5775 -48.879
4 39.3747 12.2197 -47.5213
1 39.3264 17.6269 -37.9556
1 42.1064 14.9194 -37.9105
4 42.0902 14.9352 -47.5213
4 43.448 10.862 -48.879
1 43.4134 16.2999 -39.287
1 46.149 13.5621 -39.3283
4 46.1635 13.5775 -48.879
4 44.8058 12.2197 -47.5213
1 44.8068 17.5801 -37.9545
1 47.512 14.8824 -37.9036
4 47.5213 14.9352 -47.5213
4 48.879 10.862 -48.879
1 48.9077 16.3192 -39.1774
1 51.554 13.5247 -39.1947
4 51.5945 13.5775 -48.879
4 50.2368 12.2197 -47.5213
1 50.304 17.5341 -37.8016
1 52.9927 14.9613 -37.9607
4 52.9522 14.9352 -47.5213
4 0 16.293 -48.879
3 2.70286 18.9096 -39.2868
4 2.7155 19.0085 -48.879
4 1.35775 17.6507 -47.5213
3 1.23443 22.2792 -38.8552
3 4.13797 20.2598 -37.919
4 4.07325 20.3663 -47.5213
4 5.431 16.293 -48.879
3 5.42253 21.6925 -39.3047
3 8.13786 18.9829 -39.3399
4 8.1465 19.0085 -48.879
4 6.78875 17.6507 -47.5213
3 6.79325 22.9822 -37.9714
3 9.53142 20.2953 -37.9765
4 9.50425 20.3663 -47.5213
4 10.862 16.293 -48.879
3 10.8608 21.7015 -39.3414
3 13.5656 18.854 -39.2324
4 13.5775 19.0085 -48.879
4 12.2197 17.6507 -47.5213
3 12.2266 22.9882 -37.9578
3 14.909 20.2344 -37.9791
4 14.9352 20.3663 -47.5213
4 16.293 16.293 -48.879
3 16.21 21.6746 -39.3684
1 18.9274 18.9564 -39.2266
4 19.0085 19.0085 -48.879
4 17.6507 17.6507 -47.5213
1 17.6566 22.9501 -37.9148
1 20.3721 20.2345 -37.8947
4 20.3663 20.3663 -47.5213
4 21.724 16.293 -48.879
1 21.6089 21.6734 -39.2962
1 24.3016 18.8601 -39.2994
4 24.4395 19.0085 -48.879
4 23.0817 17.6507 -47.5213
1 22.9203 23.0659 -37.8564
1 25.6657 20.3407 -37.9884
4 25.7973 20.3663 -47.5213
4 27.155 16.293 -48.879
1 27.1098 21.6597 -39.3046
1 29.8277 18.9622 -39.2889
4 29.8705 19.0085 -48.879
4 28.5128 17.6507 -47.5213
1 28.4209 22.9731 -37.9087
1 31.1691 20.3153 -37.9387
4 31.2282 20.3663 -47.5213
4 32.586 16.293 -48.879
1 32.568 21.6859 -39.2974
1 35.2468 18.9174 -39.3827
4 35.3015 19.0085 -48.879
4 33.9438 17.6507 -47.5213
1 33.9016 23.0538 -37.9054
1 36.6904 20.2741 -37.9647
4 36.6593 20.3663 -47.5213
4 38.017 16.293 -48.879
1 38.0442 21.6496 -39.3654
1 40.7176 18.9904 -39.3147
4 40.7325 19.0085 -48.879
4 39.3747 17.6507 -47.5213
1 39.4157 22.9889 -37.9796
1 42.1155 20.2543 -37.8548
4 42.0902 20.3663 -47.5213
4 43.448 16.293 -48.879
1 43.4121 21.596 -39.2861
1 46.2423 18.9307 -39.2704
4 46.1635 19.0085 -48.879
4 44.8058 17.6507 -47.5213
1 44.7582 22.9942 -37.9406
1 47.5551 20.2371 -37.8246
4 47.5213 20.3663 -47.5213
4 48.879 16.293 -48.879
1 48.918 21.7146 -39.2169
1 51.5064 18.8947 -39.2586
4 51.5945 19.0085 -48.879
4 50.2368 17.6507 -47.5213
1 50.2295 22.9784 -37.8651
1 52.9673 20.2427 -37.8752
4 52.9522 20.3663 -47.5213
4 0 21.724 -48.879
3 2.56088 24.3271 -39.2653
4 2.7155 24.4395 -48.879
4 1.35775 23.0817 -47.5213
3 1.20924 28.2346 -38.0653
3 3.99598 25.6368 -38.0223
4 4.07325 25.7973 -47.5213
4 5.431 21.724 -48.879
3 5.45501 27.0906 -39.3157
3 8.15078 24.4488 -39.3942
4 8.1465 24.4395 -48.879
4 6.78875 23.0817 -47.5213
3 6.72136 28.4206 -37.9293
3 9.51844 25.7207 -37.9587
4 9.50425 25.7973 -47.5213
4 10.862 21.724 -48.879
3 10.8214 27.2296 -39.2702
3 13.5849 24.3886 -39.3321
4 13.5775 24.4395 -48.879
4 12.2197 23.0817 -47.5213
3 12.1676 28.4754 -37.7844
3 14.8303 25.7441 -37.9423
4 14.9352 25.7973 -47.5213
4 16.293 21.724 -48.879
3 16.3004 27.1322 -39.2187
1 18.9009 24.3958 -39.3245
4 19.0085 24.4395 -48.879
4 17.6507 23.0817 -47.5213
1 17.5723 28.3984 -37.8059
1 20.3238 25.6673 -38.1175
4 20.3663 25.7973 -47.5213
4 21.724 21.724 -48.879
1 21.734 27.1141 -39.3884
1 24.3389 24.3866 -39.2951
4 24.4395 24.4395 -48.879
4 23.0817 23.0817 -47.5213
1 22.9883 28.4077 -37.9015
1 25.6265 25.7222 -37.9154
4 25.7973 25.7973 -47.5213
4 27.155 21.724 -48.879
1 27.0289 27.0671 -39.2421
1 29.7693 24.3439 -39.3211
4 29.8705 24.4395 -48.879
4 28.5128 23.0817 -47.5213
1 28.3795 28.4353 -37.9793
1 31.18 25.7066 -37.9345
4 31.2282 25.7973 -47.5213
4 32.586 21.724 -48.879