15589
 Atoms. Timestep: 15000
4 0 0 -54.31
4 0 2.7155 -51.5945
4 2.7155 0 -51.5945
4 2.7155 2.7155 -54.31
4 1.35775 1.35775 -52.9522
4 1.35775 4.07325 -50.2368
4 4.07325 1.35775 -50.2368
4 4.07325 4.07325 -52.9522
4 5.431 0 -54.31
4 5.431 2.7155 -51.5945
4 8.1465 0 -51.5945
4 8.1465 2.7155 -54.31
4 6.78875 1.35775 -52.9522
4 6.78875 4.07325 -50.2368
4 9.50425 1.35775 -50.2368
4 9.50425 4.07325 -52.9522
4 10.862 0 -54.31
4 10.862 2.7155 -51.5945
4 13.5775 0 -51.5945
4 13.5775 2.7155 -54.31
4 12.2197 1.35775 -52.9522
4 12.2197 4.07325 -50.2368
4 14.9352 1.35775 -50.2368
4 14.9352 4.07325 -52.9522
4 16.293 0 -54.31
4 16.293 2.7155 -51.5945
4 19.0085 0 -51.5945
4 19.0085 2.7155 -54.31
4 17.6507 1.35775 -52.9522
4 17.6507 4.07325 -50.2368
4 20.3663 1.35775 -50.2368
4 20.3663 4.07325 -52.9522
4 21.724 0 -54.31
4 21.724 2.7155 -51.5945
4 24.4395 0 -51.5945
4 24.4395 2.7155 -54.31
4 23.0817 1.35775 -52.9522
4 23.0817 4.07325 -50.2368
4 25.7973 1.35775 -50.2368
4 25.7973 4.07325 -52.9522
4 27.155 0 -54.31
4 27.155 2.7155 -51.5945
4 29.8705 0 -51.5945
4 29.8705 2.7155 -54.31
4 28.5128 1.35775 -52.9522
4 28.5128 4.07325 -50.2368
4 31.2282 1.35775 -50.2368
4 31.2282 4.07325 -52.9522
4 32.586 0 -54.31
4 32.586 2.7155 -51.5945
4 35.3015 0 -51.5945
4 35.3015 2.7155 -54.31
4 33.9438 1.35775 -52.9522
4 33.9438 4.07325 -50.2368
4 36.6593 1.35775 -50.2368
4 36.6593 4.07325 -52.9522
4 38.017 0 -54.31
4 38.017 2.7155 -51.5945
4 40.7325 0 -51.5945
4 40.7325 2.7155 -54.31
4 39.3747 1.35775 -52.9522
4 39.3747 4.07325 -50.2368
4 42.0902 1.35775 -50.2368
4 42.0902 4.07325 -52.9522
4 43.448 0 -54.31
4 43.448 2.7155 -51.5945
4 46.1635 0 -51.5945
4 46.1635 2.7155 -54.31
4 44.8058 1.35775 -52.9522
4 44.8058 4.07325 -50.2368
4 47.5213 1.35775 -50.2368
4 47.5213 4.07325 -52.9522
4 48.879 0 -54.31
4 48.879 2.7155 -51.5945
4 51.5945 0 -51.5945
4 51.5945 2.7155 -54.31
4 50.2368 1.35775 -52.9522
4 50.2368 4.07325 -50.2368
4 52.9522 1.35775 -50.2368
4 52.9522 4.07325 -52.9522
4 0 5.431 -54.31
4 0 8.1465 -51.5945
4 2.7155 5.431 -51.5945
4 2.7155 8.1465 -54.31
4 1.35775 6.78875 -52.9522
4 1.35775 9.50425 -50.2368
4 4.07325 6.78875 -50.2368
4 4.07325 9.50425 -52.9522
4 5.431 5.431 -54.31
4 5.431 8.1465 -51.5945
4 8.1465 5.431 -51.5945
4 8.1465 8.1465 -54.31
4 6.78875 6.78875 -52.9522
4 6.78875 9.50425 -50.2368
4 9.50425 6.78875 -50.2368
4 9.50425 9.50425 -52.9522
4 10.862 5.431 -54.31
4 10.862 8.1465 -51.5945
4 13.5775 5.431 -51.5945
4 13.5775 8.1465 -54.31
4 12.2197 6.78875 -52.9522
4 12.2197 9.50425 -50.2368
4 14.9352 6.78875 -50.2368
4 14.9352 9.50425 -52.9522
4 16.293 5.431 -54.31
4 16.293 8.1465 -51.5945
4 19.0085 5.431 -51.5945
4 19.0085 8.1465 -54.31
4 17.6507 6.78875 -52.9522
4 17.6507 9.50425 -50.2368
4 20.3663 6.78875 -50.2368
4 20.3663 9.50425 -52.9522
4 21.724 5.431 -54.31
4 21.724 8.1465 -51.5945
4 24.4395 5.431 -51.5945
4 24.4395 8.1465 -54.31
4 23.0817 6.78875 -52.9522
4 23.0817 9.50425 -50.2368
4 25.7973 6.78875 -50.2368
4 25.7973 9.50425 -52.9522
4 27.155 5.431 -54.31
4 27.155 8.1465 -51.5945
4 29.8705 5.431 -51.5945
4 29.8705 8.1465 -54.31
4 28.5128 6.78875 -52.9522
4 28.5128 9.50425 -50.2368
4 31.2282 6.78875 -50.2368
4 31.2282 9.50425 -52.9522
4 32.586 5.431 -54.31
4 32.586 8.1465 -51.5945
4 35.3015 5.431 -51.5945
4 35.3015 8.1465 -54.31
4 33.9438 6.78875 -52.9522
4 33.9438 9.50425 -50.2368
4 36.6593 6.78875 -50.2368
4 36.6593 9.50425 -52.9522
4 38.017 5.431 -54.31
4 38.017 8.1465 -51.5945
4 40.7325 5.431 -51.5945
4 40.7325 8.1465 -54.31
4 39.3747 6.78875 -52.9522
4 39.3747 9.50425 -50.2368
4 42.0902 6.78875 -50.2368
4 42.0902 9.50425 -52.9522
4 43.448 5.431 -54.31
4 43.448 8.1465 -51.5945
4 46.1635 5.431 -51.5945
4 46.1635 8.1465 -54.31
4 44.8058 6.78875 -52.9522
4 44.8058 9.50425 -50.2368
4 47.5213 6.78875 -50.2368
4 47.5213 9.50425 -52.9522
4 48.879 5.431 -54.31
4 48.879 8.1465 -51.5945
4 51.5945 5.431 -51.5945
4 51.5945 8.1465 -54.31
4 50.2368 6.78875 -52.9522
4 50.2368 9.50425 -50.2368
4 52.9522 6.78875 -50.2368
4 52.9522 9.50425 -52.9522
4 0 10.862 -54.31
4 0 13.5775 -51.5945
4 2.7155 10.862 -51.5945
4 2.7155 13.5775 -54.31
4 1.35775 12.2197 -52.9522
4 1.35775 14.9352 -50.2368
4 4.07325 12.2197 -50.2368
4 4.07325 14.9352 -52.9522
4 5.431 10.862 -54.31
4 5.431 13.5775 -51.5945
4 8.1465 10.862 -51.5945
4 8.1465 13.5775 -54.31
4 6.78875 12.2197 -52.9522
4 6.78875 14.9352 -50.2368
4 9.50425 12.2197 -50.2368
4 9.50425 14.9352 -52.9522
4 10.862 10.862 -54.31
4 10.862 13.5775 -51.5945
4 13.5775 10.862 -51.5945
4 13.5775 13.5775 -54.31
4 12.2197 12.2197 -52.9522
4 12.2197 14.9352 -50.2368
4 14.9352 12.2197 -50.2368
4 14.9352 14.9352 -52.9522
4 16.293 10.862 -54.31
4 16.293 13.5775 -51.5945
4 19.0085 10.862 -51.5945
4 19.0085 13.5775 -54.31
4 17.6507 12.2197 -52.9522
4 17.6507 14.9352 -50.2368
4 20.3663 12.2197 -50.2368
4 20.3663 14.9352 -52.9522
4 21.724 10.862 -54.31
4 21.724 13.5775 -51.5945
4 24.4395 10.862 -51.5945
4 24.4395 13.5775 -54.31
4 23.0817 12.2197 -52.9522
4 23.0817 14.9352 -50.2368
4 25.7973 12.2197 -50.2368
4 25.7973 14.9352 -52.9522
4 27.155 10.862 -54.31
4 27.155 13.5775 -51.5945
4 29.8705 10.862 -51.5945
4 29.8705 13.5775 -54.31
4 28.5128 12.2197 -52.9522
4 28.5128 14.9352 -50.2368
4 31.2282 12.2197 -50.2368
4 31.2282 14.9352 -52.9522
4 32.586 10.862 -54.31
4 32.586 13.5775 -51.5945
4 35.3015 10.862 -51.5945
4 35.3015 13.5775 -54.31
4 33.9438 12.2197 -52.9522
4 33.9438 14.9352 -50.2368
4 36.6593 12.2197 -50.2368
4 36.6593 14.9352 -52.9522
4 38.017 10.862 -54.31
4 38.017 13.5775 -51.5945
4 40.7325 10.862 -51.5945
4 40.7325 13.5775 -54.31
4 39.3747 12.2197 -52.9522
4 39.3747 14.9352 -50.2368
4 42.0902 12.2197 -50.2368
4 42.0902 14.9352 -52.9522
4 43.448 10.862 -54.31
4 43.448 13.5775 -51.5945
4 46.1635 10.862 -51.5945
4 46.1635 13.5775 -54.31
4 44.8058 12.2197 -52.9522
4 44.8058 14.9352 -50.2368
4 47.5213 12.2197 -50.2368
4 47.5213 14.9352 -52.9522
4 48.879 10.862 -54.31
4 48.879 13.5775 -51.5945
4 51.5945 10.862 -51.5945
4 51.5945 13.5775 -54.31
4 50.2368 12.2197 -52.9522
4 50.2368 14.9352 -50.2368
4 52.9522 12.2197 -50.2368
4 52.9522 14.9352 -52.9522
4 0 16.293 -54.31
4 0 19.0085 -51.5945
4 2.7155 16.293 -51.5945
4 2.7155 19.0085 -54.31
4 1.35775 17.6507 -52.9522
4 1.35775 20.3663 -50.2368
4 4.07325 17.6507 -50.2368
4 4.07325 20.3663 -52.9522
4 5.431 16.293 -54.31
4 5.431 19.0085 -51.5945
4 8.1465 16.293 -51.5945
4 8.1465 19.0085 -54.31
4 6.78875 17.6507 -52.9522
4 6.78875 20.3663 -50.2368
4 9.50425 17.6507 -50.2368
4 9.50425 20.3663 -52.9522
4 10.862 16.293 -54.31
4 10.862 19.0085 -51.5945
4 13.5775 16.293 -51.5945
4 13.5775 19.0085 -54.31
4 12.2197 17.6507 -52.9522
4 12.2197 20.3663 -50.2368
4 14.9352 17.6507 -50.2368
4 14.9352 20.3663 -52.9522
4 16.293 16.293 -54.31
4 16.293 19.0085 -51.5945
4 19.0085 16.293 -51.5945
4 19.0085 19.0085 -54.31
4 17.6507 17.6507 -52.9522
4 17.6507 20.3663 -50.2368
4 20.3663 17.6507 -50.2368
4 20.3663 20.3663 -52.9522
4 21.724 16.293 -54.31
4 21.724 19.0085 -51.5945
4 24.4395 16.293 -51.5945
4 24.4395 19.0085 -54.31
4 23.0817 17.6507 -52.9522
4 23.0817 20.3663 -50.2368
4 25.7973 17.6507 -50.2368
4 25.7973 20.3663 -52.9522
4 27.155 16.293 -54.31
4 27.155 19.0085 -51.5945
4 29.8705 16.293 -51.5945
4 29.8705 19.0085 -54.31
4 28.5128 17.6507 -52.9522
4 28.5128 20.3663 -50.2368
4 31.2282 17.6507 -50.2368
4 31.2282 20.3663 -52.9522
4 32.586 16.293 -54.31
4 32.586 19.0085 -51.5945
4 35.3015 16.293 -51.5945
4 35.3015 19.0085 -54.31
4 33.9438 17.6507 -52.9522
4 33.9438 20.3663 -50.2368
4 36.6593 17.6507 -50.2368
4 36.6593 20.3663 -52.9522
4 38.017 16.293 -54.31
4 38.017 19.0085 -51.5945
4 40.7325 16.293 -51.5945
4 40.7325 19.0085 -54.31
4 39.3747 17.6507 -52.9522
4 39.3747 20.3663 -50.2368
4 42.0902 17.6507 -50.2368
4 42.0902 20.3663 -52.9522
4 43.448 16.293 -54.31
4 43.448 19.0085 -51.5945
4 46.1635 16.293 -51.5945
4 46.1635 19.0085 -54.31
4 44.8058 17.6507 -52.9522
4 44.8058 20.3663 -50.2368
4 47.5213 17.6507 -50.2368
4 47.5213 20.3663 -52.9522
4 48.879 16.293 -54.31
4 48.879 19.0085 -51.5945
4 51.5945 16.293 -51.5945
4 51.5945 19.0085 -54.31
4 50.2368 17.6507 -52.9522
4 50.2368 20.3663 -50.2368
4 52.9522 17.6507 -50.2368
4 52.9522 20.3663 -52.9522
4 0 21.724 -54.31
4 0 24.4395 -51.5945
4 2.7155 21.724 -51.5945
4 2.7155 24.4395 -54.31
4 1.35775 23.0817 -52.9522
4 1.35775 25.7973 -50.2368
4 4.07325 23.0817 -50.2368
4 4.07325 25.7973 -52.9522
4 5.431 21.724 -54.31
4 5.431 24.4395 -51.5945
4 8.1465 21.724 -51.5945
4 8.1465 24.4395 -54.31
4 6.78875 23.0817 -52.9522
4 6.78875 25.7973 -50.2368
4 9.50425 23.0817 -50.2368
4 9.50425 25.7973 -52.9522
4 10.862 21.724 -54.31
4 10.862 24.4395 -51.5945
4 13.5775 21.724 -51.5945
4 13.5775 24.4395 -54.31
4 12.2197 23.0817 -52.9522
4 12.2197 25.7973 -50.2368
4 14.9352 23.0817 -50.2368
4 14.9352 25.7973 -52.9522
4 16.293 21.724 -54.31
4 16.293 24.4395 -51.5945
4 19.0085 21.724 -51.5945
4 19.0085 24.4395 -54.31
4 17.6507 23.0817 -52.9522
4 17.6507 25.7973 -50.2368
4 20.3663 23.0817 -50.2368
4 20.3663 25.7973 -52.9522
4 21.724 21.724 -54.31
4 21.724 24.4395 -51.5945
4 24.4395 21.724 -51.5945
4 24.4395 24.4395 -54.31
4 23.0817 23.0817 -52.9522
4 23.0817 25.7973 -50.2368
4 25.7973 23.0817 -50.2368
4 25.7973 25.7973 -52.9522
4 27.155 21.724 -54.31
4 27.155 24.4395 -51.5945
4 29.8705 21.724 -51.5945
4 29.8705 24.4395 -54.31
4 28.5128 23.0817 -52.9522
4 28.5128 25.7973 -50.2368
4 31.2282 23.0817 -50.2368
4 31.2282 25.7973 -52.9522
4 32.586 21.724 -54.31
4 32.586 24.4395 -51.5945
4 35.3015 21.724 -51.5945
4 35.3015 24.4395 -54.31
4 33.9438 23.0817 -52.9522
4 33.9438 25.7973 -50.2368
4 36.6593 23.0817 -50.2368
4 36.6593 25.7973 -52.9522
4 38.017 21.724 -54.31
4 38.017 24.4395 -51.5945
4 40.7325 21.724 -51.5945
4 40.7325 24.4395 -54.31
4 39.3747 23.0817 -52.9522
4 39.3747 25.7973 -50.2368
4 42.0902 23.0817 -50.2368
4 42.0902 25.7973 -52.9522
4 43.448 21.724 -54.31
4 43.448 24.4395 -51.5945
4 46.1635 21.724 -51.5945
4 46.1635 24.4395 -54.31
4 44.8058 23.0817 -52.9522
4 44.8058 25.7973 -50.2368
4 47.5213 23.0817 -50.2368
4 47.5213 25.7973 -52.9522
4 48.879 21.724 -54.31
4 48.879 24.4395 -51.5945
4 51.5945 21.724 -51.5945
4 51.5945 24.4395 -54.31
4 50.2368 23.0817 -52.9522
4 50.2368 25.7973 -50.2368
4 52.9522 23.0817 -50.2368
4 52.9522 25.7973 -52.9522
4 0 27.155 -54.31
4 0 29.8705 -51.5945
4 2.7155 27.155 -51.5945
4 2.7155 29.8705 -54.31
4 1.35775 28.5128 -52.9522
4 1.35775 31.2282 -50.2368
4 4.07325 28.5128 -50.2368
4 4.07325 31.2282 -52.9522
4 5.431 27.155 -54.31
4 5.431 29.8705 -51.5945
4 8.1465 27.155 -51.5945
4 8.1465 29.8705 -54.31
4 6.78875 28.5128 -52.9522
4 6.78875 31.2282 -50.2368
4 9.50425 28.5128 -50.2368
4 9.50425 31.2282 -52.9522
4 10.862 27.155 -54.31
4 10.862 29.8705 -51.5945
4 13.5775 27.155 -51.5945
4 13.5775 29.8705 -54.31
4 12.2197 28.5128 -52.9522
4 12.2197 31.2282 -50.2368
4 14.9352 28.5128 -50.2368
4 14.9352 31.2282 -52.9522
4 16.293 27.155 -54.31
4 16.293 29.8705 -51.5945
4 19.0085 27.155 -51.5945
4 19.0085 29.8705 -54.31
4 17.6507 28.5128 -52.9522
4 17.6507 31.2282 -50.2368
4 20.3663 28.5128 -50.2368
4 20.3663 31.2282 -52.9522
4 21.724 27.155 -54.31
4 21.724 29.8705 -51.5945
4 24.4395 27.155 -51.5945
4 24.4395 29.8705 -54.31
4 23.0817 28.5128 -52.9522
4 23.0817 31.2282 -50.2368
4 25.7973 28.5128 -50.2368
4 25.7973 31.2282 -52.9522
4 27.155 27.155 -54.31
4 27.155 29.8705 -51.5945
4 29.8705 27.155 -51.5945
4 29.8705 29.8705 -54.31
4 28.5128 28.5128 -52.9522
4 28.5128 31.2282 -50.2368
4 31.2282 28.5128 -50.2368
4 31.2282 31.2282 -52.9522
4 32.586 27.155 -54.31
4 32.586 29.8705 -51.5945
4 35.3015 27.155 -51.5945
4 35.3015 29.8705 -54.31
4 33.9438 28.5128 -52.9522
4 33.9438 31.2282 -50.2368
4 36.6593 28.5128 -50.2368
4 36.6593 31.2282 -52.9522
4 38.017 27.155 -54.31
4 38.017 29.8705 -51.5945
4 40.7325 27.155 -51.5945
4 40.7325 29.8705 -54.31
4 39.3747 28.5128 -52.9522
4 39.3747 31.2282 -50.2368
4 42.0902 28.5128 -50.2368
4 42.0902 31.2282 -52.9522
4 43.448 27.155 -54.31
4 43.448 29.8705 -51.5945
4 46.1635 27.155 -51.5945
4 46.1635 29.8705 -54.31
4 44.8058 28.5128 -52.9522
4 44.8058 31.2282 -50.2368
4 47.5213 28.5128 -50.2368
4 47.5213 31.2282 -52.9522
4 48.879 27.155 -54.31
4 48.879 29.8705 -51.5945
4 51.5945 27.155 -51.5945
4 51.5945 29.8705 -54.31
4 50.2368 28.5128 -52.9522
4 50.2368 31.2282 -50.2368
4 52.9522 28.5128 -50.2368
4 52.9522 31.2282 -52.9522
4 0 32.586 -54.31
4 0 35.3015 -51.5945
4 2.7155 32.586 -51.5945
4 2.7155 35.3015 -54.31
4 1.35775 33.9438 -52.9522
4 1.35775 36.6593 -50.2368
4 4.07325 33.9438 -50.2368
4 4.07325 36.6593 -52.9522
4 5.431 32.586 -54.31
4 5.431 35.3015 -51.5945
4 8.1465 32.586 -51.5945
4 8.1465 35.3015 -54.31
4 6.78875 33.9438 -52.9522
4 6.78875 36.6593 -50.2368
4 9.50425 33.9438 -50.2368
4 9.50425 36.6593 -52.9522
4 10.862 32.586 -54.31
4 10.862 35.3015 -51.5945
4 13.5775 32.586 -51.5945
4 13.5775 35.3015 -54.31
4 12.2197 33.9438 -52.9522
4 12.2197 36.6593 -50.2368
4 14.9352 33.9438 -50.2368
4 14.9352 36.6593 -52.9522
4 16.293 32.586 -54.31
4 16.293 35.3015 -51.5945
4 19.0085 32.586 -51.5945
4 19.0085 35.3015 -54.31
4 17.6507 33.9438 -52.9522
4 17.6507 36.6593 -50.2368
4 20.3663 33.9438 -50.2368
4 20.3663 36.6593 -52.9522
4 21.724 32.586 -54.31
4 21.724 35.3015 -51.5945
4 24.4395 32.586 -51.5945
4 24.4395 35.3015 -54.31
4 23.0817 33.9438 -52.9522
4 23.0817 36.6593 -50.2368
4 25.7973 33.9438 -50.2368
4 25.7973 36.6593 -52.9522
4 27.155 32.586 -54.31
4 27.155 35.3015 -51.5945
4 29.8705 32.586 -51.5945
4 29.8705 35.3015 -54.31
4 28.5128 33.9438 -52.9522
4 28.5128 36.6593 -50.2368
4 31.2282 33.9438 -50.2368
4 31.2282 36.6593 -52.9522
4 32.586 32.586 -54.31
4 32.586 35.3015 -51.5945
4 35.3015 32.586 -51.5945
4 35.3015 35.3015 -54.31
4 33.9438 33.9438 -52.9522
4 33.9438 36.6593 -50.2368
4 36.6593 33.9438 -50.2368
4 36.6593 36.6593 -52.9522
4 38.017 32.586 -54.31
4 38.017 35.3015 -51.5945
4 40.7325 32.586 -51.5945
4 40.7325 35.3015 -54.31
4 39.3747 33.9438 -52.9522
4 39.3747 36.6593 -50.2368
4 42.0902 33.9438 -50.2368
4 42.0902 36.6593 -52.9522
4 43.448 32.586 -54.31
4 43.448 35.3015 -51.5945
4 46.1635 32.586 -51.5945
4 46.1635 35.3015 -54.31
4 44.8058 33.9438 -52.9522
4 44.8058 36.6593 -50.2368
4 47.5213 33.9438 -50.2368
4 47.5213 36.6593 -52.9522
4 48.879 32.586 -54.31
4 48.879 35.3015 -51.5945
4 51.5945 32.586 -51.5945
4 51.5945 35.3015 -54.31
4 50.2368 33.9438 -52.9522
4 50.2368 36.6593 -50.2368
4 52.9522 33.9438 -50.2368
4 52.9522 36.6593 -52.9522
4 0 38.017 -54.31
4 0 40.7325 -51.5945
4 2.7155 38.017 -51.5945
4 2.7155 40.7325 -54.31
4 1.35775 39.3747 -52.9522
4 1.35775 42.0902 -50.2368
4 4.07325 39.3747 -50.2368
4 4.07325 42.0902 -52.9522
4 5.431 38.017 -54.31
4 5.431 40.7325 -51.5945
4 8.1465 38.017 -51.5945
4 8.1465 40.7325 -54.31
4 6.78875 39.3747 -52.9522
4 6.78875 42.0902 -50.2368
4 9.50425 39.3747 -50.2368
4 9.50425 42.0902 -52.9522
4 10.862 38.017 -54.31
4 10.862 40.7325 -51.5945
4 13.5775 38.017 -51.5945
4 13.5775 40.7325 -54.31
4 12.2197 39.3747 -52.9522
4 12.2197 42.0902 -50.2368
4 14.9352 39.3747 -50.2368
4 14.9352 42.0902 -52.9522
4 16.293 38.017 -54.31
4 16.293 40.7325 -51.5945
4 19.0085 38.017 -51.5945
4 19.0085 40.7325 -54.31
4 17.6507 39.3747 -52.9522
4 17.6507 42.0902 -50.2368
4 20.3663 39.3747 -50.2368
4 20.3663 42.0902 -52.9522
4 21.724 38.017 -54.31
4 21.724 40.7325 -51.5945
4 24.4395 38.017 -51.5945
4 24.4395 40.7325 -54.31
4 23.0817 39.3747 -52.9522
4 23.0817 42.0902 -50.2368
4 25.7973 39.3747 -50.2368
4 25.7973 42.0902 -52.9522
4 27.155 38.017 -54.31
4 27.155 40.7325 -51.5945
4 29.8705 38.017 -51.5945
4 29.8705 40.7325 -54.31
4 28.5128 39.3747 -52.9522
4 28.5128 42.0902 -50.2368
4 31.2282 39.3747 -50.2368
4 31.2282 42.0902 -52.9522
4 32.586 38.017 -54.31
4 32.586 40.7325 -51.5945
4 35.3015 38.017 -51.5945
4 35.3015 40.7325 -54.31
4 33.9438 39.3747 -52.9522
4 33.9438 42.0902 -50.2368
4 36.6593 39.3747 -50.2368
4 36.6593 42.0902 -52.9522
4 38.017 38.017 -54.31
4 38.017 40.7325 -51.5945
4 40.7325 38.017 -51.5945
4 40.7325 40.7325 -54.31
4 39.3747 39.3747 -52.9522
4 39.3747 42.0902 -50.2368
4 42.0902 39.3747 -50.2368
4 42.0902 42.0902 -52.9522
4 43.448 38.017 -54.31
4 43.448 40.7325 -51.5945
4 46.1635 38.017 -51.5945
4 46.1635 40.7325 -54.31
4 44.8058 39.3747 -52.9522
4 44.8058 42.0902 -50.2368
4 47.5213 39.3747 -50.2368
4 47.5213 42.0902 -52.9522
4 48.879 38.017 -54.31
4 48.879 40.7325 -51.5945
4 51.5945 38.017 -51.5945
4 51.5945 40.7325 -54.31
4 50.2368 39.3747 -52.9522
4 50.2368 42.0902 -50.2368
4 52.9522 39.3747 -50.2368
4 52.9522 42.0902 -52.9522
4 0 43.448 -54.31
4 0 46.1635 -51.5945
4 2.7155 43.448 -51.5945
4 2.7155 46.1635 -54.31
4 1.35775 44.8058 -52.9522
4 1.35775 47.5213 -50.2368
4 4.07325 44.8058 -50.2368
4 4.07325 47.5213 -52.9522
4 5.431 43.448 -54.31
4 5.431 46.1635 -51.5945
4 8.1465 43.448 -51.5945
4 8.1465 46.1635 -54.31
4 6.78875 44.8058 -52.9522
4 6.78875 47.5213 -50.2368
4 9.50425 44.8058 -50.2368
4 9.50425 47.5213 -52.9522
4 10.862 43.448 -54.31
4 10.862 46.1635 -51.5945
4 13.5775 43.448 -51.5945
4 13.5775 46.1635 -54.31
4 12.2197 44.8058 -52.9522
4 12.2197 47.5213 -50.2368
4 14.9352 44.8058 -50.2368
4 14.9352 47.5213 -52.9522
4 16.293 43.448 -54.31
4 16.293 46.1635 -51.5945
4 19.0085 43.448 -51.5945
4 19.0085 46.1635 -54.31
4 17.6507 44.8058 -52.9522
4 17.6507 47.5213 -50.2368
4 20.3663 44.8058 -50.2368
4 20.3663 47.5213 -52.9522
4 21.724 43.448 -54.31
4 21.724 46.1635 -51.5945
4 24.4395 43.448 -51.5945
4 24.4395 46.1635 -54.31
4 23.0817 44.8058 -52.9522
4 23.0817 47.5213 -50.2368
4 25.7973 44.8058 -50.2368
4 25.7973 47.5213 -52.9522
4 27.155 43.448 -54.31
4 27.155 46.1635 -51.5945
4 29.8705 43.448 -51.5945
4 29.8705 46.1635 -54.31
4 28.5128 44.8058 -52.9522
4 28.5128 47.5213 -50.2368
4 31.2282 44.8058 -50.2368
4 31.2282 47.5213 -52.9522
4 32.586 43.448 -54.31
4 32.586 46.1635 -51.5945
4 35.3015 43.448 -51.5945
4 35.3015 46.1635 -54.31
4 33.9438 44.8058 -52.9522
4 33.9438 47.5213 -50.2368
4 36.6593 44.8058 -50.2368
4 36.6593 47.5213 -52.9522
4 38.017 43.448 -54.31
4 38.017 46.1635 -51.5945
4 40.7325 43.448 -51.5945
4 40.7325 46.1635 -54.31
4 39.3747 44.8058 -52.9522
4 39.3747 47.5213 -50.2368
4 42.0902 44.8058 -50.2368
4 42.0902 47.5213 -52.9522
4 43.448 43.448 -54.31
4 43.448 46.1635 -51.5945
4 46.1635 43.448 -51.5945
4 46.1635 46.1635 -54.31
4 44.8058 44.8058 -52.9522
4 44.8058 47.5213 -50.2368
4 47.5213 44.8058 -50.2368
4 47.5213 47.5213 -52.9522
4 48.879 43.448 -54.31
4 48.879 46.1635 -51.5945
4 51.5945 43.448 -51.5945
4 51.5945 46.1635 -54.31
4 50.2368 44.8058 -52.9522
4 50.2368 47.5213 -50.2368
4 52.9522 44.8058 -50.2368
4 52.9522 47.5213 -52.9522
4 0 48.879 -54.31
4 0 51.5945 -51.5945
4 2.7155 48.879 -51.5945
4 2.7155 51.5945 -54.31
4 1.35775 50.2368 -52.9522
4 1.35775 52.9522 -50.2368
4 4.07325 50.2368 -50.2368
4 4.07325 52.9522 -52.9522
4 5.431 48.879 -54.31
4 5.431 51.5945 -51.5945
4 8.1465 48.879 -51.5945
4 8.1465 51.5945 -54.31
4 6.78875 50.2368 -52.9522
4 6.78875 52.9522 -50.2368
4 9.50425 50.2368 -50.2368
4 9.50425 52.9522 -52.9522
4 10.862 48.879 -54.31
4 10.862 51.5945 -51.5945
4 13.5775 48.879 -51.5945
4 13.5775 51.5945 -54.31
4 12.2197 50.2368 -52.9522
4 12.2197 52.9522 -50.2368
4 14.9352 50.2368 -50.2368
4 14.9352 52.9522 -52.9522
4 16.293 48.879 -54.31
4 16.293 51.5945 -51.5945
4 19.0085 48.879 -51.5945
4 19.0085 51.5945 -54.31
4 17.6507 50.2368 -52.9522
4 17.6507 52.9522 -50.2368
4 20.3663 50.2368 -50.2368
4 20.3663 52.9522 -52.9522
4 21.724 48.879 -54.31
4 21.724 51.5945 -51.5945
4 24.4395 48.879 -51.5945
4 24.4395 51.5945 -54.31
4 23.0817 50.2368 -52.9522
4 23.0817 52.9522 -50.2368
4 25.7973 50.2368 -50.2368
4 25.7973 52.9522 -52.9522
4 27.155 48.879 -54.31
4 27.155 51.5945 -51.5945
4 29.8705 48.879 -51.5945
4 29.8705 51.5945 -54.31
4 28.5128 50.2368 -52.9522
4 28.5128 52.9522 -50.2368
4 31.2282 50.2368 -50.2368
4 31.2282 52.9522 -52.9522
4 32.586 48.879 -54.31
4 32.586 51.5945 -51.5945
4 35.3015 48.879 -51.5945
4 35.3015 51.5945 -54.31
4 33.9438 50.2368 -52.9522
4 33.9438 52.9522 -50.2368
4 36.6593 50.2368 -50.2368
4 36.6593 52.9522 -52.9522
4 38.017 48.879 -54.31
4 38.017 51.5945 -51.5945
4 40.7325 48.879 -51.5945
4 40.7325 51.5945 -54.31
4 39.3747 50.2368 -52.9522
4 39.3747 52.9522 -50.2368
4 42.0902 50.2368 -50.2368
4 42.0902 52.9522 -52.9522
4 43.448 48.879 -54.31
4 43.448 51.5945 -51.5945
4 46.1635 48.879 -51.5945
4 46.1635 51.5945 -54.31
4 44.8058 50.2368 -52.9522
4 44.8058 52.9522 -50.2368
4 47.5213 50.2368 -50.2368
4 47.5213 52.9522 -52.9522
4 48.879 48.879 -54.31
4 48.879 51.5945 -51.5945
4 51.5945 48.879 -51.5945
4 51.5945 51.5945 -54.31
4 50.2368 50.2368 -52.9522
4 50.2368 52.9522 -50.2368
4 52.9522 50.2368 -50.2368
4 52.9522 52.9522 -52.9522
4 0 0 -48.879
3 2.70881 0.0181323 -46.2096
4 2.7155 2.7155 -48.879
4 1.35775 1.35775 -47.5213
3 1.25593 4.17336 -44.6604
3 4.04072 1.3392 -44.7547
4 4.07325 4.07325 -47.5213
4 5.431 0 -48.879
3 5.43619 2.74571 -46.094
3 8.2009 0.0574861 -46.1025
4 8.1465 2.7155 -48.879
4 6.78875 1.35775 -47.5213
3 6.83057 4.0395 -44.6367
3 9.52878 1.48465 -44.7535
4 9.50425 4.07325 -47.5213
4 10.862 0 -48.879
3 10.8956 2.77014 -46.1754
3 13.4606 54.2537 -46.0403
4 13.5775 2.7155 -48.879
4 12.2197 1.35775 -47.5213
3 12.1283 4.11446 -44.7653
3 14.9178 1.35318 -44.7388
4 14.9352 4.07325 -47.5213
4 16.293 0 -48.879
3 16.3093 2.6606 -46.1265
1 18.9359 -0.00658671 -46.1537
4 19.0085 2.7155 -48.879
4 17.6507 1.35775 -47.5213
1 17.7167 3.98138 -44.7005
1 20.3859 1.28197 -44.732
4 20.3663 4.07325 -47.5213
4 21.724 0 -48.879
1 21.7488 2.70523 -46.0667
1 24.4657 0.0370933 -46.0389
4 24.4395 2.7155 -48.879
4 23.0817 1.35775 -47.5213
1 23.1649 4.09438 -44.746
1 25.8963 1.38885 -44.684
4 25.7973 4.07325 -47.5213
4 27.155 0 -48.879
1 27.1561 2.7918 -46.1025
1 29.8743 -0.052808 -46.0498
4 29.8705 2.7155 -48.879
4 28.5128 1.35775 -47.5213
1 28.5867 4.12804 -44.6395
1 31.2571 1.34257 -44.7969
4 31.2282 4.07325 -47.5213
4 32.586 0 -48.879
1 32.5928 2.70032 -46.2053
1 35.2845 54.3608 -46.0479
4 35.3015 2.7155 -48.879
4 33.9438 1.35775 -47.5213
1 34.0132 4.09434 -44.6876
1 36.5883 1.41172 -44.5954
4 36.6593 4.07325 -47.5213
4 38.017 0 -48.879
1 37.985 2.72044 -46.0863
1 40.8152 54.2778 -46.0177
4 40.7325 2.7155 -48.879
4 39.3747 1.35775 -47.5213
1 39.371 4.11544 -44.7947
1 42.1487 1.38449 -44.6861
4 42.0902 4.07325 -47.5213
4 43.448 0 -48.879
1 43.5205 2.75516 -46.1714
1 46.1676 54.3197 -46.0516
4 46.1635 2.7155 -48.879
4 44.8058 1.35775 -47.5213
1 44.9121 4.05471 -44.6959
1 47.6027 1.29422 -44.6811
4 47.5213 4.07325 -47.5213
4 48.879 0 -48.879
1 48.9026 2.67718 -46.078
1 51.6808 -0.107899 -46.12
4 51.5945 2.7155 -48.879
4 50.2368 1.35775 -47.5213
1 50.2515 4.0779 -44.6686
1 53.0202 1.2579 -44.5842
4 52.9522 4.07325 -47.5213
4 0 5.431 -48.879
3 2.68342 5.41675 -46.121
4 2.7155 8.1465 -48.879
4 1.35775 6.78875 -47.5213
3 1.39432 9.52744 -44.6861
3 4.08746 6.80386 -44.8094
4 4.07325 9.50425 -47.5213
4 5.431 5.431 -48.879
3 5.51314 8.15909 -46.1643
3 8.08672 5.3858 -46.1139
4 8.1465 8.1465 -48.879
4 6.78875 6.78875 -47.5213
3 6.8315 9.46642 -44.7585
3 9.43806 6.76952 -44.8267
4 9.50425 9.50425 -47.5213
4 10.862 5.431 -48.879
3 10.875 8.12291 -46.1495
3 13.5349 5.42124 -46.1273
4 13.5775 8.1465 -48.879
4 12.2197 6.78875 -47.5213
3 12.1729 9.46423 -44.7055
3 14.7601 6.82985 -44.7372
4 14.9352 9.50425 -47.5213
4 16.293 5.431 -48.879
3 16.2242 8.08157 -46.1328
1 19.0339 5.39343 -46.0883
4 19.0085 8.1465 -48.879
4 17.6507 6.78875 -47.5213
1 17.6291 9.4477 -44.7009
1 20.3996 6.71585 -44.6217
4 20.3663 9.50425 -47.5213
4 21.724 5.431 -48.879
1 21.6155 8.06608 -46.13
1 24.4807 5.42273 -46.1812
4 24.4395 8.1465 -48.879
4 23.0817 6.78875 -47.5213
1 22.9105 9.44794 -44.709
1 25.7712 6.82458 -44.8303
4 25.7973 9.50425 -47.5213
4 27.155 5.431 -48.879
1 27.1595 8.17231 -46.1335
1 29.9502 5.55652 -46.0454
4 29.8705 8.1465 -48.879
4 28.5128 6.78875 -47.5213
1 28.4957 9.49079 -44.6817
1 31.2852 6.86573 -44.7121
4 31.2282 9.50425 -47.5213
4 32.586 5.431 -48.879
1 32.5955 8.1293 -46.1961
1 35.25 5.45539 -46.1828
4 35.3015 8.1465 -48.879
4 33.9438 6.78875 -47.5213
1 33.8602 9.54265 -44.7092
1 36.6488 6.83917 -44.8262
4 36.6593 9.50425 -47.5213
4 38.017 5.431 -48.879
1 38.1244 8.18368 -46.1093
1 40.8405 5.53964 -46.1287
4 40.7325 8.1465 -48.879
4 39.3747 6.78875 -47.5213
1 39.4516 9.59067 -44.7114
1 42.0987 6.88782 -44.6717
4 42.0902 9.50425 -47.5213
4 43.448 5.431 -48.879
1 43.4293 8.18641 -46.1082
1 46.169 5.45026 -46.1098
4 46.1635 8.1465 -48.879
4 44.8058 6.78875 -47.5213
1 44.8285 9.4982 -44.726
1 47.5678 6.86922 -44.7102
4 47.5213 9.50425 -47.5213
4 48.879 5.431 -48.879
1 48.8783 8.13783 -46.1816
1 51.6439 5.47445 -46.0466
4 51.5945 8.1465 -48.879
4 50.2368 6.78875 -47.5213
1 50.2286 9.50593 -44.7439
1 52.8614 6.96626 -44.7068
4 52.9522 9.50425 -47.5213
4 0 10.862 -48.879
3 2.71377 10.7687 -46.1662
4 2.7155 13.5775 -48.879
4 1.35775 12.2197 -47.5213
3 1.45719 14.7873 -44.7245
3 4.05192 12.1666 -44.7845
4 4.07325 14.9352 -47.5213
4 5.431 10.862 -48.879
3 5.4595 13.7118 -46.0416
3 8.14349 10.8834 -46.1028
4 8.1465 13.5775 -48.879
4 6.78875 12.2197 -47.5213
3 6.7784 15.0422 -44.6871
3 9.51358 12.2669 -44.6732
4 9.50425 14.9352 -47.5213
4 10.862 10.862 -48.879
3 10.9286 13.5902 -46.1149
3 13.5938 10.8372 -46.0418
4 13.5775 13.5775 -48.879
4 12.2197 12.2197 -47.5213
3 12.2201 14.9129 -44.7072
3 14.9117 12.168 -44.6212
4 14.9352 14.9352 -47.5213
4 16.293 10.862 -48.879
3 16.3037 13.5412 -46.0661
1 18.9425 10.8327 -46.0336
4 19.0085 13.5775 -48.879
4 17.6507 12.2197 -47.5213
1 17.7514 14.9575 -44.7486
1 20.3072 12.2034 -44.625
4 20.3663 14.9352 -47.5213
4 21.724 10.862 -48.879
1 21.6073 13.6096 -46.0453
1 24.3998 10.7849 -46.1167
4 24.4395 13.5775 -48.879
4 23.0817 12.2197 -47.5213
1 23.023 15.0073 -44.7282
1 25.7001 12.215 -44.7211
4 25.7973 14.9352 -47.5213
4 27.155 10.862 -48.879
1 27.1558 13.4931 -46.1464
1 29.8064 10.8021 -46.0692
4 29.8705 13.5775 -48.879
4 28.5128 12.2197 -47.5213
1 28.4733 14.9227 -44.6999
1 31.1811 12.2187 -44.6261
4 31.2282 14.9352 -47.5213
4 32.586 10.862 -48.879
1 32.5429 13.6189 -46.0672
1 35.2119 10.8086 -46.185
4 35.3015 13.5775 -48.879
4 33.9438 12.2197 -47.5213
1 33.8955 14.957 -44.6796
1 36.5394 12.2219 -44.7782
4 36.6593 14.9352 -47.5213
4 38.017 10.862 -48.879
1 38.0426 13.6052 -46.1071
1 40.7563 10.9016 -46.1333
4 40.7325 13.5775 -48.879
4 39.3747 12.2197 -47.5213
1 39.3309 14.9656 -44.6186
1 42.1266 12.244 -44.7344
4 42.0902 14.9352 -47.5213
4 43.448 10.862 -48.879
1 43.4098 13.6192 -46.0988
1 46.1808 10.9353 -46.0919
4 46.1635 13.5775 -48.879
4 44.8058 12.2197 -47.5213
1 44.6777 14.9914 -44.623
1 47.5018 12.2755 -44.6231
4 47.5213 14.9352 -47.5213
4 48.879 10.862 -48.879
1 48.9224 13.5526 -46.0696
1 51.5887 10.8911 -46.076
4 51.5945 13.5775 -48.879
4 50.2368 12.2197 -47.5213
1 50.2767 15.0678 -44.7514
1 52.9151 12.5332 -44.9442
4 52.9522 14.9352 -47.5213
4 0 16.293 -48.879
3 2.67953 16.2615 -46.1824
4 2.7155 19.0085 -48.879
4 1.35775 17.6507 -47.5213
3 1.22921 20.3366 -44.865
3 3.96701 17.5674 -44.6967
4 4.07325 20.3663 -47.5213
4 5.431 16.293 -48.879
3 5.39887 18.931 -46.1147
3 8.14444 16.3394 -46.0626
4 8.1465 19.0085 -48.879
4 6.78875 17.6507 -47.5213
3 6.61357 20.2796 -44.7202
3 9.43306 17.658 -44.6388
4 9.50425 20.3663 -47.5213
4 10.862 16.293 -48.879
3 10.8429 19.0152 -46.0165
3 13.567 16.3182 -46.0832
4 13.5775 19.0085 -48.879
4 12.2197 17.6507 -47.5213
3 12.2152 20.4006 -44.697
3 14.854 17.6427 -44.648
4 14.9352 20.3663 -47.5213
4 16.293 16.293 -48.879
3 16.2458 18.9905 -46.1321
1 18.9784 16.4153 -46.0994
4 19.0085 19.0085 -48.879
4 17.6507 17.6507 -47.5213
1 17.6887 20.3205 -44.7435
1 20.2889 17.7921 -44.6493
4 20.3663 20.3663 -47.5213
4 21.724 16.293 -48.879
1 21.7231 19.0295 -46.0691
1 24.4439 16.3344 -46.163
4 24.4395 19.0085 -48.879
4 23.0817 17.6507 -47.5213
1 23.1052 20.3633 -44.7081
1 25.8072 17.6028 -44.6797
4 25.7973 20.3663 -47.5213
4 27.155 16.293 -48.879
1 27.1391 19.0227 -46.0955
1 29.9344 16.3228 -46.0671
4 29.8705 19.0085 -48.879
4 28.5128 17.6507 -47.5213
1 28.4897 20.3706 -44.6856
1 31.2711 17.6812 -44.7667
4 31.2282 20.3663 -47.5213
4 32.586 16.293 -48.879
1 32.6004 19.0791 -46.1769
1 35.2776 16.3328 -46.0748
4 35.3015 19.0085 -48.879
4 33.9438 17.6507 -47.5213
1 33.909 20.3423 -44.7257
1 36.6123 17.6873 -44.6943
4 36.6593 20.3663 -47.5213
4 38.017 16.293 -48.879
1 37.9792 18.9931 -46.1879
1 40.633 16.2318 -46.163
4 40.7325 19.0085 -48.879
4 39.3747 17.6507 -47.5213
1 39.2754 20.3407 -44.7845
1 41.9945 17.6415 -44.6378
4 42.0902 20.3663 -47.5213
4 43.448 16.293 -48.879
1 43.4718 19.0153 -46.1624
1 46.0714 16.286 -46.0384
4 46.1635 19.0085 -48.879
4 44.8058 17.6507 -47.5213
1 44.7248 20.3954 -44.632
1 47.4415 17.6593 -44.6125
4 47.5213 20.3663 -47.5213
4 48.879 16.293 -48.879
1 48.8667 19.0212 -46.0819
1 51.647 16.4165 -46.1219
4 51.5945 19.0085 -48.879
4 50.2368 17.6507 -47.5213
1 50.3377 20.3592 -44.7077
1 52.9822 17.7403 -44.7928
4 52.9522 20.3663 -47.5213
4 0 21.724 -48.879
3 2.69647 21.7269 -46.1613
4 2.7155 24.4395 -48.879
4 1.35775 23.0817 -47.5213
3 1.21563 25.7698 -44.7823
3 4.0193 23.1413 -44.7194
4 4.07325 25.7973 -47.5213
4 5.431 21.724 -48.879
3 5.39535 24.377 -46.1863
3 8.05524 21.6839 -46.0957
4 8.1465 24.4395 -48.879
4 6.78875 23.0817 -47.5213
3 6.78444 25.7892 -44.8125
3 9.44133 23.025 -44.7905
4 9.50425 25.7973 -47.5213
4 10.862 21.724 -48.879
3 10.8784 24.4522 -46.0341
3 13.5012 21.706 -46.161
4 13.5775 24.4395 -48.879
4 12.2197 23.0817 -47.5213
3 12.2165 25.8804 -44.6414
3 14.9496 22.9506 -44.7903
4 14.9352 25.7973 -47.5213
4 16.293 21.724 -48.879
3 16.298 24.3857 -46.1591
1 19.0553 21.7528 -46.1032
4 19.0085 24.4395 -48.879
4 17.6507 23.0817 -47.5213
1 17.6112 25.7847 -44.8086
1 20.4513 23.1068 -44.7596
4 20.3663 25.7973 -47.5213
4 21.724 21.724 -48.879
1 21.7313 24.4105 -46.2249
1 24.4325 21.6974 -46.1387
4 24.4395 24.4395 -48.879
4 23.0817 23.0817 -47.5213
1 23.0315 25.7357 -44.7523
1 25.7383 23.039 -44.7361
4 25.7973 25.7973 -47.5213
4 27.155 21.724 -48.879
1 27.0714 24.4821 -46.1053
1 29.8943 21.7995 -46.0045
4 29.8705 24.4395 -48.879
4 28.5128 23.0817 -47.5213
1 28.3627 25.9123 -44.8036
1 31.2029 23.1625 -44.7469
4 31.2282 25.7973 -47.5213
4 32.586 21.724 -48.879