15589
 Atoms. Timestep: 5000
4 0 0 -54.31
4 0 2.7155 -51.5945
4 2.7155 0 -51.5945
4 2.7155 2.7155 -54.31
4 1.35775 1.35775 -52.9522
4 1.35775 4.07325 -50.2368
4 4.07325 1.35775 -50.2368
4 4.07325 4.07325 -52.9522
4 5.431 0 -54.31
4 5.431 2.7155 -51.5945
4 8.1465 0 -51.5945
4 8.1465 2.7155 -54.31
4 6.78875 1.35775 -52.9522
4 6.78875 4.07325 -50.2368
4 9.50425 1.35775 -50.2368
4 9.50425 4.07325 -52.9522
4 10.862 0 -54.31
4 10.862 2.7155 -51.5945
4 13.5775 0 -51.5945
4 13.5775 2.7155 -54.31
4 12.2197 1.35775 -52.9522
4 12.2197 4.07325 -50.2368
4 14.9352 1.35775 -50.2368
4 14.9352 4.07325 -52.9522
4 16.293 0 -54.31
4 16.293 2.7155 -51.5945
4 19.0085 0 -51.5945
4 19.0085 2.7155 -54.31
4 17.6507 1.35775 -52.9522
4 17.6507 4.07325 -50.2368
4 20.3663 1.35775 -50.2368
4 20.3663 4.07325 -52.9522
4 21.724 0 -54.31
4 21.724 2.7155 -51.5945
4 24.4395 0 -51.5945
4 24.4395 2.7155 -54.31
4 23.0817 1.35775 -52.9522
4 23.0817 4.07325 -50.2368
4 25.7973 1.35775 -50.2368
4 25.7973 4.07325 -52.9522
4 27.155 0 -54.31
4 27.155 2.7155 -51.5945
4 29.8705 0 -51.5945
4 29.8705 2.7155 -54.31
4 28.5128 1.35775 -52.9522
4 28.5128 4.07325 -50.2368
4 31.2282 1.35775 -50.2368
4 31.2282 4.07325 -52.9522
4 32.586 0 -54.31
4 32.586 2.7155 -51.5945
4 35.3015 0 -51.5945
4 35.3015 2.7155 -54.31
4 33.9438 1.35775 -52.9522
4 33.9438 4.07325 -50.2368
4 36.6593 1.35775 -50.2368
4 36.6593 4.07325 -52.9522
4 38.017 0 -54.31
4 38.017 2.7155 -51.5945
4 40.7325 0 -51.5945
4 40.7325 2.7155 -54.31
4 39.3747 1.35775 -52.9522
4 39.3747 4.07325 -50.2368
4 42.0902 1.35775 -50.2368
4 42.0902 4.07325 -52.9522
4 43.448 0 -54.31
4 43.448 2.7155 -51.5945
4 46.1635 0 -51.5945
4 46.1635 2.7155 -54.31
4 44.8058 1.35775 -52.9522
4 44.8058 4.07325 -50.2368
4 47.5213 1.35775 -50.2368
4 47.5213 4.07325 -52.9522
4 48.879 0 -54.31
4 48.879 2.7155 -51.5945
4 51.5945 0 -51.5945
4 51.5945 2.7155 -54.31
4 50.2368 1.35775 -52.9522
4 50.2368 4.07325 -50.2368
4 52.9522 1.35775 -50.2368
4 52.9522 4.07325 -52.9522
4 0 5.431 -54.31
4 0 8.1465 -51.5945
4 2.7155 5.431 -51.5945
4 2.7155 8.1465 -54.31
4 1.35775 6.78875 -52.9522
4 1.35775 9.50425 -50.2368
4 4.07325 6.78875 -50.2368
4 4.07325 9.50425 -52.9522
4 5.431 5.431 -54.31
4 5.431 8.1465 -51.5945
4 8.1465 5.431 -51.5945
4 8.1465 8.1465 -54.31
4 6.78875 6.78875 -52.9522
4 6.78875 9.50425 -50.2368
4 9.50425 6.78875 -50.2368
4 9.50425 9.50425 -52.9522
4 10.862 5.431 -54.31
4 10.862 8.1465 -51.5945
4 13.5775 5.431 -51.5945
4 13.5775 8.1465 -54.31
4 12.2197 6.78875 -52.9522
4 12.2197 9.50425 -50.2368
4 14.9352 6.78875 -50.2368
4 14.9352 9.50425 -52.9522
4 16.293 5.431 -54.31
4 16.293 8.1465 -51.5945
4 19.0085 5.431 -51.5945
4 19.0085 8.1465 -54.31
4 17.6507 6.78875 -52.9522
4 17.6507 9.50425 -50.2368
4 20.3663 6.78875 -50.2368
4 20.3663 9.50425 -52.9522
4 21.724 5.431 -54.31
4 21.724 8.1465 -51.5945
4 24.4395 5.431 -51.5945
4 24.4395 8.1465 -54.31
4 23.0817 6.78875 -52.9522
4 23.0817 9.50425 -50.2368
4 25.7973 6.78875 -50.2368
4 25.7973 9.50425 -52.9522
4 27.155 5.431 -54.31
4 27.155 8.1465 -51.5945
4 29.8705 5.431 -51.5945
4 29.8705 8.1465 -54.31
4 28.5128 6.78875 -52.9522
4 28.5128 9.50425 -50.2368
4 31.2282 6.78875 -50.2368
4 31.2282 9.50425 -52.9522
4 32.586 5.431 -54.31
4 32.586 8.1465 -51.5945
4 35.3015 5.431 -51.5945
4 35.3015 8.1465 -54.31
4 33.9438 6.78875 -52.9522
4 33.9438 9.50425 -50.2368
4 36.6593 6.78875 -50.2368
4 36.6593 9.50425 -52.9522
4 38.017 5.431 -54.31
4 38.017 8.1465 -51.5945
4 40.7325 5.431 -51.5945
4 40.7325 8.1465 -54.31
4 39.3747 6.78875 -52.9522
4 39.3747 9.50425 -50.2368
4 42.0902 6.78875 -50.2368
4 42.0902 9.50425 -52.9522
4 43.448 5.431 -54.31
4 43.448 8.1465 -51.5945
4 46.1635 5.431 -51.5945
4 46.1635 8.1465 -54.31
4 44.8058 6.78875 -52.9522
4 44.8058 9.50425 -50.2368
4 47.5213 6.78875 -50.2368
4 47.5213 9.50425 -52.9522
4 48.879 5.431 -54.31
4 48.879 8.1465 -51.5945
4 51.5945 5.431 -51.5945
4 51.5945 8.1465 -54.31
4 50.2368 6.78875 -52.9522
4 50.2368 9.50425 -50.2368
4 52.9522 6.78875 -50.2368
4 52.9522 9.50425 -52.9522
4 0 10.862 -54.31
4 0 13.5775 -51.5945
4 2.7155 10.862 -51.5945
4 2.7155 13.5775 -54.31
4 1.35775 12.2197 -52.9522
4 1.35775 14.9352 -50.2368
4 4.07325 12.2197 -50.2368
4 4.07325 14.9352 -52.9522
4 5.431 10.862 -54.31
4 5.431 13.5775 -51.5945
4 8.1465 10.862 -51.5945
4 8.1465 13.5775 -54.31
4 6.78875 12.2197 -52.9522
4 6.78875 14.9352 -50.2368
4 9.50425 12.2197 -50.2368
4 9.50425 14.9352 -52.9522
4 10.862 10.862 -54.31
4 10.862 13.5775 -51.5945
4 13.5775 10.862 -51.5945
4 13.5775 13.5775 -54.31
4 12.2197 12.2197 -52.9522
4 12.2197 14.9352 -50.2368
4 14.9352 12.2197 -50.2368
4 14.9352 14.9352 -52.9522
4 16.293 10.862 -54.31
4 16.293 13.5775 -51.5945
4 19.0085 10.862 -51.5945
4 19.0085 13.5775 -54.31
4 17.6507 12.2197 -52.9522
4 17.6507 14.9352 -50.2368
4 20.3663 12.2197 -50.2368
4 20.3663 14.9352 -52.9522
4 21.724 10.862 -54.31
4 21.724 13.5775 -51.5945
4 24.4395 10.862 -51.5945
4 24.4395 13.5775 -54.31
4 23.0817 12.2197 -52.9522
4 23.0817 14.9352 -50.2368
4 25.7973 12.2197 -50.2368
4 25.7973 14.9352 -52.9522
4 27.155 10.862 -54.31
4 27.155 13.5775 -51.5945
4 29.8705 10.862 -51.5945
4 29.8705 13.5775 -54.31
4 28.5128 12.2197 -52.9522
4 28.5128 14.9352 -50.2368
4 31.2282 12.2197 -50.2368
4 31.2282 14.9352 -52.9522
4 32.586 10.862 -54.31
4 32.586 13.5775 -51.5945
4 35.3015 10.862 -51.5945
4 35.3015 13.5775 -54.31
4 33.9438 12.2197 -52.9522
4 33.9438 14.9352 -50.2368
4 36.6593 12.2197 -50.2368
4 36.6593 14.9352 -52.9522
4 38.017 10.862 -54.31
4 38.017 13.5775 -51.5945
4 40.7325 10.862 -51.5945
4 40.7325 13.5775 -54.31
4 39.3747 12.2197 -52.9522
4 39.3747 14.9352 -50.2368
4 42.0902 12.2197 -50.2368
4 42.0902 14.9352 -52.9522
4 43.448 10.862 -54.31
4 43.448 13.5775 -51.5945
4 46.1635 10.862 -51.5945
4 46.1635 13.5775 -54.31
4 44.8058 12.2197 -52.9522
4 44.8058 14.9352 -50.2368
4 47.5213 12.2197 -50.2368
4 47.5213 14.9352 -52.9522
4 48.879 10.862 -54.31
4 48.879 13.5775 -51.5945
4 51.5945 10.862 -51.5945
4 51.5945 13.5775 -54.31
4 50.2368 12.2197 -52.9522
4 50.2368 14.9352 -50.2368
4 52.9522 12.2197 -50.2368
4 52.9522 14.9352 -52.9522
4 0 16.293 -54.31
4 0 19.0085 -51.5945
4 2.7155 16.293 -51.5945
4 2.7155 19.0085 -54.31
4 1.35775 17.6507 -52.9522
4 1.35775 20.3663 -50.2368
4 4.07325 17.6507 -50.2368
4 4.07325 20.3663 -52.9522
4 5.431 16.293 -54.31
4 5.431 19.0085 -51.5945
4 8.1465 16.293 -51.5945
4 8.1465 19.0085 -54.31
4 6.78875 17.6507 -52.9522
4 6.78875 20.3663 -50.2368
4 9.50425 17.6507 -50.2368
4 9.50425 20.3663 -52.9522
4 10.862 16.293 -54.31
4 10.862 19.0085 -51.5945
4 13.5775 16.293 -51.5945
4 13.5775 19.0085 -54.31
4 12.2197 17.6507 -52.9522
4 12.2197 20.3663 -50.2368
4 14.9352 17.6507 -50.2368
4 14.9352 20.3663 -52.9522
4 16.293 16.293 -54.31
4 16.293 19.0085 -51.5945
4 19.0085 16.293 -51.5945
4 19.0085 19.0085 -54.31
4 17.6507 17.6507 -52.9522
4 17.6507 20.3663 -50.2368
4 20.3663 17.6507 -50.2368
4 20.3663 20.3663 -52.9522
4 21.724 16.293 -54.31
4 21.724 19.0085 -51.5945
4 24.4395 16.293 -51.5945
4 24.4395 19.0085 -54.31
4 23.0817 17.6507 -52.9522
4 23.0817 20.3663 -50.2368
4 25.7973 17.6507 -50.2368
4 25.7973 20.3663 -52.9522
4 27.155 16.293 -54.31
4 27.155 19.0085 -51.5945
4 29.8705 16.293 -51.5945
4 29.8705 19.0085 -54.31
4 28.5128 17.6507 -52.9522
4 28.5128 20.3663 -50.2368
4 31.2282 17.6507 -50.2368
4 31.2282 20.3663 -52.9522
4 32.586 16.293 -54.31
4 32.586 19.0085 -51.5945
4 35.3015 16.293 -51.5945
4 35.3015 19.0085 -54.31
4 33.9438 17.6507 -52.9522
4 33.9438 20.3663 -50.2368
4 36.6593 17.6507 -50.2368
4 36.6593 20.3663 -52.9522
4 38.017 16.293 -54.31
4 38.017 19.0085 -51.5945
4 40.7325 16.293 -51.5945
4 40.7325 19.0085 -54.31
4 39.3747 17.6507 -52.9522
4 39.3747 20.3663 -50.2368
4 42.0902 17.6507 -50.2368
4 42.0902 20.3663 -52.9522
4 43.448 16.293 -54.31
4 43.448 19.0085 -51.5945
4 46.1635 16.293 -51.5945
4 46.1635 19.0085 -54.31
4 44.8058 17.6507 -52.9522
4 44.8058 20.3663 -50.2368
4 47.5213 17.6507 -50.2368
4 47.5213 20.3663 -52.9522
4 48.879 16.293 -54.31
4 48.879 19.0085 -51.5945
4 51.5945 16.293 -51.5945
4 51.5945 19.0085 -54.31
4 50.2368 17.6507 -52.9522
4 50.2368 20.3663 -50.2368
4 52.9522 17.6507 -50.2368
4 52.9522 20.3663 -52.9522
4 0 21.724 -54.31
4 0 24.4395 -51.5945
4 2.7155 21.724 -51.5945
4 2.7155 24.4395 -54.31
4 1.35775 23.0817 -52.9522
4 1.35775 25.7973 -50.2368
4 4.07325 23.0817 -50.2368
4 4.07325 25.7973 -52.9522
4 5.431 21.724 -54.31
4 5.431 24.4395 -51.5945
4 8.1465 21.724 -51.5945
4 8.1465 24.4395 -54.31
4 6.78875 23.0817 -52.9522
4 6.78875 25.7973 -50.2368
4 9.50425 23.0817 -50.2368
4 9.50425 25.7973 -52.9522
4 10.862 21.724 -54.31
4 10.862 24.4395 -51.5945
4 13.5775 21.724 -51.5945
4 13.5775 24.4395 -54.31
4 12.2197 23.0817 -52.9522
4 12.2197 25.7973 -50.2368
4 14.9352 23.0817 -50.2368
4 14.9352 25.7973 -52.9522
4 16.293 21.724 -54.31
4 16.293 24.4395 -51.5945
4 19.0085 21.724 -51.5945
4 19.0085 24.4395 -54.31
4 17.6507 23.0817 -52.9522
4 17.6507 25.7973 -50.2368
4 20.3663 23.0817 -50.2368
4 20.3663 25.7973 -52.9522
4 21.724 21.724 -54.31
4 21.724 24.4395 -51.5945
4 24.4395 21.724 -51.5945
4 24.4395 24.4395 -54.31
4 23.0817 23.0817 -52.9522
4 23.0817 25.7973 -50.2368
4 25.7973 23.0817 -50.2368
4 25.7973 25.7973 -52.9522
4 27.155 21.724 -54.31
4 27.155 24.4395 -51.5945
4 29.8705 21.724 -51.5945
4 29.8705 24.4395 -54.31
4 28.5128 23.0817 -52.9522
4 28.5128 25.7973 -50.2368
4 31.2282 23.0817 -50.2368
4 31.2282 25.7973 -52.9522
4 32.586 21.724 -54.31
4 32.586 24.4395 -51.5945
4 35.3015 21.724 -51.5945
4 35.3015 24.4395 -54.31
4 33.9438 23.0817 -52.9522
4 33.9438 25.7973 -50.2368
4 36.6593 23.0817 -50.2368
4 36.6593 25.7973 -52.9522
4 38.017 21.724 -54.31
4 38.017 24.4395 -51.5945
4 40.7325 21.724 -51.5945
4 40.7325 24.4395 -54.31
4 39.3747 23.0817 -52.9522
4 39.3747 25.7973 -50.2368
4 42.0902 23.0817 -50.2368
4 42.0902 25.7973 -52.9522
4 43.448 21.724 -54.31
4 43.448 24.4395 -51.5945
4 46.1635 21.724 -51.5945
4 46.1635 24.4395 -54.31
4 44.8058 23.0817 -52.9522
4 44.8058 25.7973 -50.2368
4 47.5213 23.0817 -50.2368
4 47.5213 25.7973 -52.9522
4 48.879 21.724 -54.31
4 48.879 24.4395 -51.5945
4 51.5945 21.724 -51.5945
4 51.5945 24.4395 -54.31
4 50.2368 23.0817 -52.9522
4 50.2368 25.7973 -50.2368
4 52.9522 23.0817 -50.2368
4 52.9522 25.7973 -52.9522
4 0 27.155 -54.31
4 0 29.8705 -51.5945
4 2.7155 27.155 -51.5945
4 2.7155 29.8705 -54.31
4 1.35775 28.5128 -52.9522
4 1.35775 31.2282 -50.2368
4 4.07325 28.5128 -50.2368
4 4.07325 31.2282 -52.9522
4 5.431 27.155 -54.31
4 5.431 29.8705 -51.5945
4 8.1465 27.155 -51.5945
4 8.1465 29.8705 -54.31
4 6.78875 28.5128 -52.9522
4 6.78875 31.2282 -50.2368
4 9.50425 28.5128 -50.2368
4 9.50425 31.2282 -52.9522
4 10.862 27.155 -54.31
4 10.862 29.8705 -51.5945
4 13.5775 27.155 -51.5945
4 13.5775 29.8705 -54.31
4 12.2197 28.5128 -52.9522
4 12.2197 31.2282 -50.2368
4 14.9352 28.5128 -50.2368
4 14.9352 31.2282 -52.9522
4 16.293 27.155 -54.31
4 16.293 29.8705 -51.5945
4 19.0085 27.155 -51.5945
4 19.0085 29.8705 -54.31
4 17.6507 28.5128 -52.9522
4 17.6507 31.2282 -50.2368
4 20.3663 28.5128 -50.2368
4 20.3663 31.2282 -52.9522
4 21.724 27.155 -54.31
4 21.724 29.8705 -51.5945
4 24.4395 27.155 -51.5945
4 24.4395 29.8705 -54.31
4 23.0817 28.5128 -52.9522
4 23.0817 31.2282 -50.2368
4 25.7973 28.5128 -50.2368
4 25.7973 31.2282 -52.9522
4 27.155 27.155 -54.31
4 27.155 29.8705 -51.5945
4 29.8705 27.155 -51.5945
4 29.8705 29.8705 -54.31
4 28.5128 28.5128 -52.9522
4 28.5128 31.2282 -50.2368
4 31.2282 28.5128 -50.2368
4 31.2282 31.2282 -52.9522
4 32.586 27.155 -54.31
4 32.586 29.8705 -51.5945
4 35.3015 27.155 -51.5945
4 35.3015 29.8705 -54.31
4 33.9438 28.5128 -52.9522
4 33.9438 31.2282 -50.2368
4 36.6593 28.5128 -50.2368
4 36.6593 31.2282 -52.9522
4 38.017 27.155 -54.31
4 38.017 29.8705 -51.5945
4 40.7325 27.155 -51.5945
4 40.7325 29.8705 -54.31
4 39.3747 28.5128 -52.9522
4 39.3747 31.2282 -50.2368
4 42.0902 28.5128 -50.2368
4 42.0902 31.2282 -52.9522
4 43.448 27.155 -54.31
4 43.448 29.8705 -51.5945
4 46.1635 27.155 -51.5945
4 46.1635 29.8705 -54.31
4 44.8058 28.5128 -52.9522
4 44.8058 31.2282 -50.2368
4 47.5213 28.5128 -50.2368
4 47.5213 31.2282 -52.9522
4 48.879 27.155 -54.31
4 48.879 29.8705 -51.5945
4 51.5945 27.155 -51.5945
4 51.5945 29.8705 -54.31
4 50.2368 28.5128 -52.9522
4 50.2368 31.2282 -50.2368
4 52.9522 28.5128 -50.2368
4 52.9522 31.2282 -52.9522
4 0 32.586 -54.31
4 0 35.3015 -51.5945
4 2.7155 32.586 -51.5945
4 2.7155 35.3015 -54.31
4 1.35775 33.9438 -52.9522
4 1.35775 36.6593 -50.2368
4 4.07325 33.9438 -50.2368
4 4.07325 36.6593 -52.9522
4 5.431 32.586 -54.31
4 5.431 35.3015 -51.5945
4 8.1465 32.586 -51.5945
4 8.1465 35.3015 -54.31
4 6.78875 33.9438 -52.9522
4 6.78875 36.6593 -50.2368
4 9.50425 33.9438 -50.2368
4 9.50425 36.6593 -52.9522
4 10.862 32.586 -54.31
4 10.862 35.3015 -51.5945
4 13.5775 32.586 -51.5945
4 13.5775 35.3015 -54.31
4 12.2197 33.9438 -52.9522
4 12.2197 36.6593 -50.2368
4 14.9352 33.9438 -50.2368
4 14.9352 36.6593 -52.9522
4 16.293 32.586 -54.31
4 16.293 35.3015 -51.5945
4 19.0085 32.586 -51.5945
4 19.0085 35.3015 -54.31
4 17.6507 33.9438 -52.9522
4 17.6507 36.6593 -50.2368
4 20.3663 33.9438 -50.2368
4 20.3663 36.6593 -52.9522
4 21.724 32.586 -54.31
4 21.724 35.3015 -51.5945
4 24.4395 32.586 -51.5945
4 24.4395 35.3015 -54.31
4 23.0817 33.9438 -52.9522
4 23.0817 36.6593 -50.2368
4 25.7973 33.9438 -50.2368
4 25.7973 36.6593 -52.9522
4 27.155 32.586 -54.31
4 27.155 35.3015 -51.5945
4 29.8705 32.586 -51.5945
4 29.8705 35.3015 -54.31
4 28.5128 33.9438 -52.9522
4 28.5128 36.6593 -50.2368
4 31.2282 33.9438 -50.2368
4 31.2282 36.6593 -52.9522
4 32.586 32.586 -54.31
4 32.586 35.3015 -51.5945
4 35.3015 32.586 -51.5945
4 35.3015 35.3015 -54.31
4 33.9438 33.9438 -52.9522
4 33.9438 36.6593 -50.2368
4 36.6593 33.9438 -50.2368
4 36.6593 36.6593 -52.9522
4 38.017 32.586 -54.31
4 38.017 35.3015 -51.5945
4 40.7325 32.586 -51.5945
4 40.7325 35.3015 -54.31
4 39.3747 33.9438 -52.9522
4 39.3747 36.6593 -50.2368
4 42.0902 33.9438 -50.2368
4 42.0902 36.6593 -52.9522
4 43.448 32.586 -54.31
4 43.448 35.3015 -51.5945
4 46.1635 32.586 -51.5945
4 46.1635 35.3015 -54.31
4 44.8058 33.9438 -52.9522
4 44.8058 36.6593 -50.2368
4 47.5213 33.9438 -50.2368
4 47.5213 36.6593 -52.9522
4 48.879 32.586 -54.31
4 48.879 35.3015 -51.5945
4 51.5945 32.586 -51.5945
4 51.5945 35.3015 -54.31
4 50.2368 33.9438 -52.9522
4 50.2368 36.6593 -50.2368
4 52.9522 33.9438 -50.2368
4 52.9522 36.6593 -52.9522
4 0 38.017 -54.31
4 0 40.7325 -51.5945
4 2.7155 38.017 -51.5945
4 2.7155 40.7325 -54.31
4 1.35775 39.3747 -52.9522
4 1.35775 42.0902 -50.2368
4 4.07325 39.3747 -50.2368
4 4.07325 42.0902 -52.9522
4 5.431 38.017 -54.31
4 5.431 40.7325 -51.5945
4 8.1465 38.017 -51.5945
4 8.1465 40.7325 -54.31
4 6.78875 39.3747 -52.9522
4 6.78875 42.0902 -50.2368
4 9.50425 39.3747 -50.2368
4 9.50425 42.0902 -52.9522
4 10.862 38.017 -54.31
4 10.862 40.7325 -51.5945
4 13.5775 38.017 -51.5945
4 13.5775 40.7325 -54.31
4 12.2197 39.3747 -52.9522
4 12.2197 42.0902 -50.2368
4 14.9352 39.3747 -50.2368
4 14.9352 42.0902 -52.9522
4 16.293 38.017 -54.31
4 16.293 40.7325 -51.5945
4 19.0085 38.017 -51.5945
4 19.0085 40.7325 -54.31
4 17.6507 39.3747 -52.9522
4 17.6507 42.0902 -50.2368
4 20.3663 39.3747 -50.2368
4 20.3663 42.0902 -52.9522
4 21.724 38.017 -54.31
4 21.724 40.7325 -51.5945
4 24.4395 38.017 -51.5945
4 24.4395 40.7325 -54.31
4 23.0817 39.3747 -52.9522
4 23.0817 42.0902 -50.2368
4 25.7973 39.3747 -50.2368
4 25.7973 42.0902 -52.9522
4 27.155 38.017 -54.31
4 27.155 40.7325 -51.5945
4 29.8705 38.017 -51.5945
4 29.8705 40.7325 -54.31
4 28.5128 39.3747 -52.9522
4 28.5128 42.0902 -50.2368
4 31.2282 39.3747 -50.2368
4 31.2282 42.0902 -52.9522
4 32.586 38.017 -54.31
4 32.586 40.7325 -51.5945
4 35.3015 38.017 -51.5945
4 35.3015 40.7325 -54.31
4 33.9438 39.3747 -52.9522
4 33.9438 42.0902 -50.2368
4 36.6593 39.3747 -50.2368
4 36.6593 42.0902 -52.9522
4 38.017 38.017 -54.31
4 38.017 40.7325 -51.5945
4 40.7325 38.017 -51.5945
4 40.7325 40.7325 -54.31
4 39.3747 39.3747 -52.9522
4 39.3747 42.0902 -50.2368
4 42.0902 39.3747 -50.2368
4 42.0902 42.0902 -52.9522
4 43.448 38.017 -54.31
4 43.448 40.7325 -51.5945
4 46.1635 38.017 -51.5945
4 46.1635 40.7325 -54.31
4 44.8058 39.3747 -52.9522
4 44.8058 42.0902 -50.2368
4 47.5213 39.3747 -50.2368
4 47.5213 42.0902 -52.9522
4 48.879 38.017 -54.31
4 48.879 40.7325 -51.5945
4 51.5945 38.017 -51.5945
4 51.5945 40.7325 -54.31
4 50.2368 39.3747 -52.9522
4 50.2368 42.0902 -50.2368
4 52.9522 39.3747 -50.2368
4 52.9522 42.0902 -52.9522
4 0 43.448 -54.31
4 0 46.1635 -51.5945
4 2.7155 43.448 -51.5945
4 2.7155 46.1635 -54.31
4 1.35775 44.8058 -52.9522
4 1.35775 47.5213 -50.2368
4 4.07325 44.8058 -50.2368
4 4.07325 47.5213 -52.9522
4 5.431 43.448 -54.31
4 5.431 46.1635 -51.5945
4 8.1465 43.448 -51.5945
4 8.1465 46.1635 -54.31
4 6.78875 44.8058 -52.9522
4 6.78875 47.5213 -50.2368
4 9.50425 44.8058 -50.2368
4 9.50425 47.5213 -52.9522
4 10.862 43.448 -54.31
4 10.862 46.1635 -51.5945
4 13.5775 43.448 -51.5945
4 13.5775 46.1635 -54.31
4 12.2197 44.8058 -52.9522
4 12.2197 47.5213 -50.2368
4 14.9352 44.8058 -50.2368
4 14.9352 47.5213 -52.9522
4 16.293 43.448 -54.31
4 16.293 46.1635 -51.5945
4 19.0085 43.448 -51.5945
4 19.0085 46.1635 -54.31
4 17.6507 44.8058 -52.9522
4 17.6507 47.5213 -50.2368
4 20.3663 44.8058 -50.2368
4 20.3663 47.5213 -52.9522
4 21.724 43.448 -54.31
4 21.724 46.1635 -51.5945
4 24.4395 43.448 -51.5945
4 24.4395 46.1635 -54.31
4 23.0817 44.8058 -52.9522
4 23.0817 47.5213 -50.2368
4 25.7973 44.8058 -50.2368
4 25.7973 47.5213 -52.9522
4 27.155 43.448 -54.31
4 27.155 46.1635 -51.5945
4 29.8705 43.448 -51.5945
4 29.8705 46.1635 -54.31
4 28.5128 44.8058 -52.9522
4 28.5128 47.5213 -50.2368
4 31.2282 44.8058 -50.2368
4 31.2282 47.5213 -52.9522
4 32.586 43.448 -54.31
4 32.586 46.1635 -51.5945
4 35.3015 43.448 -51.5945
4 35.3015 46.1635 -54.31
4 33.9438 44.8058 -52.9522
4 33.9438 47.5213 -50.2368
4 36.6593 44.8058 -50.2368
4 36.6593 47.5213 -52.9522
4 38.017 43.448 -54.31
4 38.017 46.1635 -51.5945
4 40.7325 43.448 -51.5945
4 40.7325 46.1635 -54.31
4 39.3747 44.8058 -52.9522
4 39.3747 47.5213 -50.2368
4 42.0902 44.8058 -50.2368
4 42.0902 47.5213 -52.9522
4 43.448 43.448 -54.31
4 43.448 46.1635 -51.5945
4 46.1635 43.448 -51.5945
4 46.1635 46.1635 -54.31
4 44.8058 44.8058 -52.9522
4 44.8058 47.5213 -50.2368
4 47.5213 44.8058 -50.2368
4 47.5213 47.5213 -52.9522
4 48.879 43.448 -54.31
4 48.879 46.1635 -51.5945
4 51.5945 43.448 -51.5945
4 51.5945 46.1635 -54.31
4 50.2368 44.8058 -52.9522
4 50.2368 47.5213 -50.2368
4 52.9522 44.8058 -50.2368
4 52.9522 47.5213 -52.9522
4 0 48.879 -54.31
4 0 51.5945 -51.5945
4 2.7155 48.879 -51.5945
4 2.7155 51.5945 -54.31
4 1.35775 50.2368 -52.9522
4 1.35775 52.9522 -50.2368
4 4.07325 50.2368 -50.2368
4 4.07325 52.9522 -52.9522
4 5.431 48.879 -54.31
4 5.431 51.5945 -51.5945
4 8.1465 48.879 -51.5945
4 8.1465 51.5945 -54.31
4 6.78875 50.2368 -52.9522
4 6.78875 52.9522 -50.2368
4 9.50425 50.2368 -50.2368
4 9.50425 52.9522 -52.9522
4 10.862 48.879 -54.31
4 10.862 51.5945 -51.5945
4 13.5775 48.879 -51.5945
4 13.5775 51.5945 -54.31
4 12.2197 50.2368 -52.9522
4 12.2197 52.9522 -50.2368
4 14.9352 50.2368 -50.2368
4 14.9352 52.9522 -52.9522
4 16.293 48.879 -54.31
4 16.293 51.5945 -51.5945
4 19.0085 48.879 -51.5945
4 19.0085 51.5945 -54.31
4 17.6507 50.2368 -52.9522
4 17.6507 52.9522 -50.2368
4 20.3663 50.2368 -50.2368
4 20.3663 52.9522 -52.9522
4 21.724 48.879 -54.31
4 21.724 51.5945 -51.5945
4 24.4395 48.879 -51.5945
4 24.4395 51.5945 -54.31
4 23.0817 50.2368 -52.9522
4 23.0817 52.9522 -50.2368
4 25.7973 50.2368 -50.2368
4 25.7973 52.9522 -52.9522
4 27.155 48.879 -54.31
4 27.155 51.5945 -51.5945
4 29.8705 48.879 -51.5945
4 29.8705 51.5945 -54.31
4 28.5128 50.2368 -52.9522
4 28.5128 52.9522 -50.2368
4 31.2282 50.2368 -50.2368
4 31.2282 52.9522 -52.9522
4 32.586 48.879 -54.31
4 32.586 51.5945 -51.5945
4 35.3015 48.879 -51.5945
4 35.3015 51.5945 -54.31
4 33.9438 50.2368 -52.9522
4 33.9438 52.9522 -50.2368
4 36.6593 50.2368 -50.2368
4 36.6593 52.9522 -52.9522
4 38.017 48.879 -54.31
4 38.017 51.5945 -51.5945
4 40.7325 48.879 -51.5945
4 40.7325 51.5945 -54.31
4 39.3747 50.2368 -52.9522
4 39.3747 52.9522 -50.2368
4 42.0902 50.2368 -50.2368
4 42.0902 52.9522 -52.9522
4 43.448 48.879 -54.31
4 43.448 51.5945 -51.5945
4 46.1635 48.879 -51.5945
4 46.1635 51.5945 -54.31
4 44.8058 50.2368 -52.9522
4 44.8058 52.9522 -50.2368
4 47.5213 50.2368 -50.2368
4 47.5213 52.9522 -52.9522
4 48.879 48.879 -54.31
4 48.879 51.5945 -51.5945
4 51.5945 48.879 -51.5945
4 51.5945 51.5945 -54.31
4 50.2368 50.2368 -52.9522
4 50.2368 52.9522 -50.2368
4 52.9522 50.2368 -50.2368
4 52.9522 52.9522 -52.9522
4 0 0 -48.879
3 2.58648 54.1939 -46.1477
4 2.7155 2.7155 -48.879
4 1.35775 1.35775 -47.5213
3 1.20756 3.90182 -44.8968
3 3.95139 1.18118 -44.7723
4 4.07325 4.07325 -47.5213
4 5.431 0 -48.879
3 5.3987 2.63211 -46.1326
3 8.14593 54.2677 -46.1311
4 8.1465 2.7155 -48.879
4 6.78875 1.35775 -47.5213
3 6.686 4.07592 -44.7014
3 9.42581 1.39018 -44.708
4 9.50425 4.07325 -47.5213
4 10.862 0 -48.879
3 10.8516 2.66044 -46.1565
3 13.5588 54.293 -46.1106
4 13.5775 2.7155 -48.879
4 12.2197 1.35775 -47.5213
3 12.1194 4.03508 -44.7856
3 14.9629 1.31811 -44.7209
4 14.9352 4.07325 -47.5213
4 16.293 0 -48.879
3 16.3039 2.70889 -46.1311
1 19.0581 0.066462 -46.1069
4 19.0085 2.7155 -48.879
4 17.6507 1.35775 -47.5213
1 17.6123 4.03694 -44.8123
1 20.4179 1.30544 -44.7078
4 20.3663 4.07325 -47.5213
4 21.724 0 -48.879
1 21.7666 2.73449 -46.0903
1 24.442 54.2258 -46.1211
4 24.4395 2.7155 -48.879
4 23.0817 1.35775 -47.5213
1 23.0911 4.13737 -44.6726
1 25.7757 1.31558 -44.7798
4 25.7973 4.07325 -47.5213
4 27.155 0 -48.879
1 27.1757 2.67349 -46.0972
1 29.8166 54.2843 -46.1965
4 29.8705 2.7155 -48.879
4 28.5128 1.35775 -47.5213
1 28.5408 3.9467 -44.7903
1 31.2218 1.34897 -44.7371
4 31.2282 4.07325 -47.5213
4 32.586 0 -48.879
1 32.5619 2.70485 -46.2442
1 35.3444 0.00847044 -46.0873
4 35.3015 2.7155 -48.879
4 33.9438 1.35775 -47.5213
1 33.9514 4.06464 -44.8836
1 36.7779 1.4038 -44.7735
4 36.6593 4.07325 -47.5213
4 38.017 0 -48.879
1 38.0019 2.72062 -46.1624
1 40.7329 54.2591 -46.1233
4 40.7325 2.7155 -48.879
4 39.3747 1.35775 -47.5213
1 39.3925 4.11476 -44.7449
1 42.1251 1.3363 -44.8221
4 42.0902 4.07325 -47.5213
4 43.448 0 -48.879
1 43.4563 2.73715 -46.1156
1 46.1521 54.259 -46.1941
4 46.1635 2.7155 -48.879
4 44.8058 1.35775 -47.5213
1 44.8445 4.03645 -44.711
1 47.5459 1.24264 -44.7919
4 47.5213 4.07325 -47.5213
4 48.879 0 -48.879
1 48.9601 2.69621 -46.066
1 51.6658 0.0958027 -46.1082
4 51.5945 2.7155 -48.879
4 50.2368 1.35775 -47.5213
1 50.3453 4.05013 -44.7363
1 53.0409 1.32903 -44.5979
4 52.9522 4.07325 -47.5213
4 0 5.431 -48.879
3 2.65601 5.38808 -46.1357
4 2.7155 8.1465 -48.879
4 1.35775 6.78875 -47.5213
3 1.15856 9.4648 -44.8094
3 3.95798 6.7064 -44.7994
4 4.07325 9.50425 -47.5213
4 5.431 5.431 -48.879
3 5.3749 8.10048 -46.0771
3 8.1094 5.43632 -46.1907
4 8.1465 8.1465 -48.879
4 6.78875 6.78875 -47.5213
3 6.67357 9.42615 -44.6383
3 9.5013 6.80136 -44.7349
4 9.50425 9.50425 -47.5213
4 10.862 5.431 -48.879
3 10.8438 8.18773 -46.1672
3 13.5521 5.3865 -46.1162
4 13.5775 8.1465 -48.879
4 12.2197 6.78875 -47.5213
3 12.271 9.46806 -44.8539
3 14.8962 6.78551 -44.69
4 14.9352 9.50425 -47.5213
4 16.293 5.431 -48.879
3 16.2562 8.19926 -46.1154
1 18.9431 5.42689 -46.1577
4 19.0085 8.1465 -48.879
4 17.6507 6.78875 -47.5213
1 17.6476 9.55998 -44.7871
1 20.3474 6.77091 -44.7074
4 20.3663 9.50425 -47.5213
4 21.724 5.431 -48.879
1 21.7217 8.13922 -46.1299
1 24.4292 5.47492 -46.102
4 24.4395 8.1465 -48.879
4 23.0817 6.78875 -47.5213
1 23.0344 9.48389 -44.7481
1 25.8002 6.88517 -44.6619
4 25.7973 9.50425 -47.5213
4 27.155 5.431 -48.879
1 27.1301 8.1932 -46.1283
1 29.8678 5.37168 -46.1481
4 29.8705 8.1465 -48.879
4 28.5128 6.78875 -47.5213
1 28.4747 9.47446 -44.7371
1 31.2865 6.79221 -44.8395
4 31.2282 9.50425 -47.5213
4 32.586 5.431 -48.879
1 32.6918 8.19388 -46.175
1 35.3661 5.42347 -46.2311
4 35.3015 8.1465 -48.879
4 33.9438 6.78875 -47.5213
1 33.9738 9.4489 -44.6743
1 36.6679 6.82959 -44.7368
4 36.6593 9.50425 -47.5213
4 38.017 5.431 -48.879
1 37.9937 8.19471 -46.1129
1 40.6991 5.42857 -46.1123
4 40.7325 8.1465 -48.879
4 39.3747 6.78875 -47.5213
1 39.3729 9.51715 -44.6642
1 42.0614 6.8069 -44.7875
4 42.0902 9.50425 -47.5213
4 43.448 5.431 -48.879
1 43.4803 8.11398 -46.1322
1 46.1647 5.42412 -46.1197
4 46.1635 8.1465 -48.879
4 44.8058 6.78875 -47.5213
1 44.8375 9.52278 -44.8926
1 47.5972 6.76513 -44.7668
4 47.5213 9.50425 -47.5213
4 48.879 5.431 -48.879
1 48.9003 8.14042 -46.1307
1 51.643 5.46288 -46.1901
4 51.5945 8.1465 -48.879
4 50.2368 6.78875 -47.5213
1 50.3202 9.55276 -44.8801
1 53.1045 6.77898 -44.8525
4 52.9522 9.50425 -47.5213
4 0 10.862 -48.879
3 2.60437 10.8012 -46.1878
4 2.7155 13.5775 -48.879
4 1.35775 12.2197 -47.5213
3 1.21302 14.9503 -44.8477
3 3.93564 12.1253 -44.7838
4 4.07325 14.9352 -47.5213
4 5.431 10.862 -48.879
3 5.36374 13.5511 -46.1037
3 8.02689 10.7695 -46.0277
4 8.1465 13.5775 -48.879
4 6.78875 12.2197 -47.5213
3 6.80373 14.881 -44.7519
3 9.39139 12.0467 -44.714
4 9.50425 14.9352 -47.5213
4 10.862 10.862 -48.879
3 10.7922 13.4899 -46.1682
3 13.6064 10.8719 -46.1764
4 13.5775 13.5775 -48.879
4 12.2197 12.2197 -47.5213
3 12.1274 14.8728 -44.8026
3 14.9229 12.2473 -44.7584
4 14.9352 14.9352 -47.5213
4 16.293 10.862 -48.879
3 16.2908 13.6096 -46.1658
1 19.0119 10.892 -46.1944
4 19.0085 13.5775 -48.879
4 17.6507 12.2197 -47.5213
1 17.6607 15.0231 -44.7169
1 20.3369 12.2646 -44.6937
4 20.3663 14.9352 -47.5213
4 21.724 10.862 -48.879
1 21.7368 13.6019 -46.1186
1 24.3934 10.7922 -46.1296
4 24.4395 13.5775 -48.879
4 23.0817 12.2197 -47.5213
1 23.0694 15.0158 -44.7084
1 25.6629 12.2489 -44.7009
4 25.7973 14.9352 -47.5213
4 27.155 10.862 -48.879
1 27.0969 13.4607 -46.126
1 29.8332 10.8083 -46.1482
4 29.8705 13.5775 -48.879
4 28.5128 12.2197 -47.5213
1 28.4344 14.9284 -44.7428
1 31.2672 12.2792 -44.8233
4 31.2282 14.9352 -47.5213
4 32.586 10.862 -48.879
1 32.5749 13.5843 -46.1813
1 35.3412 10.7981 -46.1069
4 35.3015 13.5775 -48.879
4 33.9438 12.2197 -47.5213
1 33.881 14.9239 -44.7559
1 36.6352 12.1776 -44.6828
4 36.6593 14.9352 -47.5213
4 38.017 10.862 -48.879
1 37.9976 13.6178 -46.0821
1 40.7531 10.7934 -46.0526
4 40.7325 13.5775 -48.879
4 39.3747 12.2197 -47.5213
1 39.438 14.9114 -44.7212
1 42.154 12.2045 -44.7669
4 42.0902 14.9352 -47.5213
4 43.448 10.862 -48.879
1 43.3899 13.5293 -46.0996
1 46.245 10.9226 -46.1935
4 46.1635 13.5775 -48.879
4 44.8058 12.2197 -47.5213
1 44.8033 14.9774 -44.7687
1 47.6496 12.2618 -44.7782
4 47.5213 14.9352 -47.5213
4 48.879 10.862 -48.879
1 48.9357 13.6571 -46.2201
1 51.73 10.9565 -46.2351
4 51.5945 13.5775 -48.879
4 50.2368 12.2197 -47.5213
1 50.2274 14.9908 -44.7127
1 53.0415 12.4307 -44.9194
4 52.9522 14.9352 -47.5213
4 0 16.293 -48.879
3 2.64799 16.2626 -46.1841
4 2.7155 19.0085 -48.879
4 1.35775 17.6507 -47.5213
3 1.26391 20.2528 -44.8226
3 3.97111 17.7049 -44.815
4 4.07325 20.3663 -47.5213
4 5.431 16.293 -48.879
3 5.35383 18.9833 -46.313
3 8.17048 16.3605 -46.0392
4 8.1465 19.0085 -48.879
4 6.78875 17.6507 -47.5213
3 6.76446 20.3433 -44.9003
3 9.51946 17.6853 -44.6352
4 9.50425 20.3663 -47.5213
4 10.862 16.293 -48.879
3 10.8267 19.0009 -46.071
3 13.4942 16.3137 -46.1155
4 13.5775 19.0085 -48.879
4 12.2197 17.6507 -47.5213
3 12.1718 20.3354 -44.8086
3 14.8774 17.6762 -44.7309
4 14.9352 20.3663 -47.5213
4 16.293 16.293 -48.879
3 16.304 18.9762 -46.0677
1 19.0377 16.3591 -46.1117
4 19.0085 19.0085 -48.879
4 17.6507 17.6507 -47.5213
1 17.7065 20.3295 -44.8163
1 20.4402 17.6746 -44.7143
4 20.3663 20.3663 -47.5213
4 21.724 16.293 -48.879
1 21.7867 19.1479 -46.1358
1 24.4464 16.3254 -46.1807
4 24.4395 19.0085 -48.879
4 23.0817 17.6507 -47.5213
1 23.0781 20.469 -44.7561
1 25.7742 17.7073 -44.7881
4 25.7973 20.3663 -47.5213
4 27.155 16.293 -48.879
1 27.1666 19.0615 -46.1444
1 29.8627 16.3021 -46.2
4 29.8705 19.0085 -48.879
4 28.5128 17.6507 -47.5213
1 28.6311 20.4078 -44.7918
1 31.2527 17.6361 -44.8428
4 31.2282 20.3663 -47.5213
4 32.586 16.293 -48.879
1 32.6401 19.0418 -46.191
1 35.3296 16.3485 -46.1142
4 35.3015 19.0085 -48.879
4 33.9438 17.6507 -47.5213
1 33.9313 20.3204 -44.7518
1 36.6405 17.6661 -44.6824
4 36.6593 20.3663 -47.5213
4 38.017 16.293 -48.879
1 38.0355 18.9589 -46.0308
1 40.8261 16.2963 -46.0847
4 40.7325 19.0085 -48.879
4 39.3747 17.6507 -47.5213
1 39.3821 20.3934 -44.7564
1 42.1159 17.6955 -44.681
4 42.0902 20.3663 -47.5213
4 43.448 16.293 -48.879
1 43.4562 18.9725 -46.1519
1 46.1881 16.2776 -46.122
4 46.1635 19.0085 -48.879
4 44.8058 17.6507 -47.5213
1 44.8751 20.2663 -44.7412
1 47.6009 17.6989 -44.8125
4 47.5213 20.3663 -47.5213
4 48.879 16.293 -48.879
1 48.8993 19.0577 -46.1891
1 51.6247 16.3443 -46.0962
4 51.5945 19.0085 -48.879
4 50.2368 17.6507 -47.5213
1 50.4006 20.3353 -44.795
1 53.0585 17.7724 -44.74
4 52.9522 20.3663 -47.5213
4 0 21.724 -48.879
3 2.67172 21.7002 -46.1197
4 2.7155 24.4395 -48.879
4 1.35775 23.0817 -47.5213
3 1.18619 25.7313 -44.7384
3 4.02396 23.0562 -44.8444
4 4.07325 25.7973 -47.5213
4 5.431 21.724 -48.879
3 5.43762 24.4171 -46.1463
3 8.09285 21.7266 -46.1624
4 8.1465 24.4395 -48.879
4 6.78875 23.0817 -47.5213
3 6.73126 25.7632 -44.7274
3 9.36281 23.0845 -44.7251
4 9.50425 25.7973 -47.5213
4 10.862 21.724 -48.879
3 10.8016 24.455 -46.1173
3 13.519 21.7093 -46.0837
4 13.5775 24.4395 -48.879
4 12.2197 23.0817 -47.5213
3 12.2423 25.8126 -44.659
3 14.9023 23.1623 -44.7349
4 14.9352 25.7973 -47.5213
4 16.293 21.724 -48.879
3 16.329 24.5766 -46.1772
1 18.9549 21.7269 -46.2049
4 19.0085 24.4395 -48.879
4 17.6507 23.0817 -47.5213
1 17.7185 25.9692 -44.7522
1 20.3776 23.1453 -44.7727
4 20.3663 25.7973 -47.5213
4 21.724 21.724 -48.879
1 21.7482 24.4571 -46.161
1 24.4855 21.785 -46.1184
4 24.4395 24.4395 -48.879
4 23.0817 23.0817 -47.5213
1 23.1166 25.9033 -44.752
1 25.8057 23.1307 -44.7017
4 25.7973 25.7973 -47.5213
4 27.155 21.724 -48.879
1 27.127 24.4587 -46.179
1 29.9777 21.8102 -46.1334
4 29.8705 24.4395 -48.879
4 28.5128 23.0817 -47.5213
1 28.5391 25.7017 -44.8295
1 31.3053 23.0179 -44.6542
4 31.2282 25.7973 -47.5213
4 32.586 21.724 -48.879