15589
 Atoms. Timestep: 30000
4 0 0 -54.31
4 0 2.7155 -51.5945
4 2.7155 0 -51.5945
4 2.7155 2.7155 -54.31
4 1.35775 1.35775 -52.9522
4 1.35775 4.07325 -50.2368
4 4.07325 1.35775 -50.2368
4 4.07325 4.07325 -52.9522
4 5.431 0 -54.31
4 5.431 2.7155 -51.5945
4 8.1465 0 -51.5945
4 8.1465 2.7155 -54.31
4 6.78875 1.35775 -52.9522
4 6.78875 4.07325 -50.2368
4 9.50425 1.35775 -50.2368
4 9.50425 4.07325 -52.9522
4 10.862 0 -54.31
4 10.862 2.7155 -51.5945
4 13.5775 0 -51.5945
4 13.5775 2.7155 -54.31
4 12.2197 1.35775 -52.9522
4 12.2197 4.07325 -50.2368
4 14.9352 1.35775 -50.2368
4 14.9352 4.07325 -52.9522
4 16.293 0 -54.31
4 16.293 2.7155 -51.5945
4 19.0085 0 -51.5945
4 19.0085 2.7155 -54.31
4 17.6507 1.35775 -52.9522
4 17.6507 4.07325 -50.2368
4 20.3663 1.35775 -50.2368
4 20.3663 4.07325 -52.9522
4 21.724 0 -54.31
4 21.724 2.7155 -51.5945
4 24.4395 0 -51.5945
4 24.4395 2.7155 -54.31
4 23.0817 1.35775 -52.9522
4 23.0817 4.07325 -50.2368
4 25.7973 1.35775 -50.2368
4 25.7973 4.07325 -52.9522
4 27.155 0 -54.31
4 27.155 2.7155 -51.5945
4 29.8705 0 -51.5945
4 29.8705 2.7155 -54.31
4 28.5128 1.35775 -52.9522
4 28.5128 4.07325 -50.2368
4 31.2282 1.35775 -50.2368
4 31.2282 4.07325 -52.9522
4 32.586 0 -54.31
4 32.586 2.7155 -51.5945
4 35.3015 0 -51.5945
4 35.3015 2.7155 -54.31
4 33.9438 1.35775 -52.9522
4 33.9438 4.07325 -50.2368
4 36.6593 1.35775 -50.2368
4 36.6593 4.07325 -52.9522
4 38.017 0 -54.31
4 38.017 2.7155 -51.5945
4 40.7325 0 -51.5945
4 40.7325 2.7155 -54.31
4 39.3747 1.35775 -52.9522
4 39.3747 4.07325 -50.2368
4 42.0902 1.35775 -50.2368
4 42.0902 4.07325 -52.9522
4 43.448 0 -54.31
4 43.448 2.7155 -51.5945
4 46.1635 0 -51.5945
4 46.1635 2.7155 -54.31
4 44.8058 1.35775 -52.9522
4 44.8058 4.07325 -50.2368
4 47.5213 1.35775 -50.2368
4 47.5213 4.07325 -52.9522
4 48.879 0 -54.31
4 48.879 2.7155 -51.5945
4 51.5945 0 -51.5945
4 51.5945 2.7155 -54.31
4 50.2368 1.35775 -52.9522
4 50.2368 4.07325 -50.2368
4 52.9522 1.35775 -50.2368
4 52.9522 4.07325 -52.9522
4 0 5.431 -54.31
4 0 8.1465 -51.5945
4 2.7155 5.431 -51.5945
4 2.7155 8.1465 -54.31
4 1.35775 6.78875 -52.9522
4 1.35775 9.50425 -50.2368
4 4.07325 6.78875 -50.2368
4 4.07325 9.50425 -52.9522
4 5.431 5.431 -54.31
4 5.431 8.1465 -51.5945
4 8.1465 5.431 -51.5945
4 8.1465 8.1465 -54.31
4 6.78875 6.78875 -52.9522
4 6.78875 9.50425 -50.2368
4 9.50425 6.78875 -50.2368
4 9.50425 9.50425 -52.9522
4 10.862 5.431 -54.31
4 10.862 8.1465 -51.5945
4 13.5775 5.431 -51.5945
4 13.5775 8.1465 -54.31
4 12.2197 6.78875 -52.9522
4 12.2197 9.50425 -50.2368
4 14.9352 6.78875 -50.2368
4 14.9352 9.50425 -52.9522
4 16.293 5.431 -54.31
4 16.293 8.1465 -51.5945
4 19.0085 5.431 -51.5945
4 19.0085 8.1465 -54.31
4 17.6507 6.78875 -52.9522
4 17.6507 9.50425 -50.2368
4 20.3663 6.78875 -50.2368
4 20.3663 9.50425 -52.9522
4 21.724 5.431 -54.31
4 21.724 8.1465 -51.5945
4 24.4395 5.431 -51.5945
4 24.4395 8.1465 -54.31
4 23.0817 6.78875 -52.9522
4 23.0817 9.50425 -50.2368
4 25.7973 6.78875 -50.2368
4 25.7973 9.50425 -52.9522
4 27.155 5.431 -54.31
4 27.155 8.1465 -51.5945
4 29.8705 5.431 -51.5945
4 29.8705 8.1465 -54.31
4 28.5128 6.78875 -52.9522
4 28.5128 9.50425 -50.2368
4 31.2282 6.78875 -50.2368
4 31.2282 9.50425 -52.9522
4 32.586 5.431 -54.31
4 32.586 8.1465 -51.5945
4 35.3015 5.431 -51.5945
4 35.3015 8.1465 -54.31
4 33.9438 6.78875 -52.9522
4 33.9438 9.50425 -50.2368
4 36.6593 6.78875 -50.2368
4 36.6593 9.50425 -52.9522
4 38.017 5.431 -54.31
4 38.017 8.1465 -51.5945
4 40.7325 5.431 -51.5945
4 40.7325 8.1465 -54.31
4 39.3747 6.78875 -52.9522
4 39.3747 9.50425 -50.2368
4 42.0902 6.78875 -50.2368
4 42.0902 9.50425 -52.9522
4 43.448 5.431 -54.31
4 43.448 8.1465 -51.5945
4 46.1635 5.431 -51.5945
4 46.1635 8.1465 -54.31
4 44.8058 6.78875 -52.9522
4 44.8058 9.50425 -50.2368
4 47.5213 6.78875 -50.2368
4 47.5213 9.50425 -52.9522
4 48.879 5.431 -54.31
4 48.879 8.1465 -51.5945
4 51.5945 5.431 -51.5945
4 51.5945 8.1465 -54.31
4 50.2368 6.78875 -52.9522
4 50.2368 9.50425 -50.2368
4 52.9522 6.78875 -50.2368
4 52.9522 9.50425 -52.9522
4 0 10.862 -54.31
4 0 13.5775 -51.5945
4 2.7155 10.862 -51.5945
4 2.7155 13.5775 -54.31
4 1.35775 12.2197 -52.9522
4 1.35775 14.9352 -50.2368
4 4.07325 12.2197 -50.2368
4 4.07325 14.9352 -52.9522
4 5.431 10.862 -54.31
4 5.431 13.5775 -51.5945
4 8.1465 10.862 -51.5945
4 8.1465 13.5775 -54.31
4 6.78875 12.2197 -52.9522
4 6.78875 14.9352 -50.2368
4 9.50425 12.2197 -50.2368
4 9.50425 14.9352 -52.9522
4 10.862 10.862 -54.31
4 10.862 13.5775 -51.5945
4 13.5775 10.862 -51.5945
4 13.5775 13.5775 -54.31
4 12.2197 12.2197 -52.9522
4 12.2197 14.9352 -50.2368
4 14.9352 12.2197 -50.2368
4 14.9352 14.9352 -52.9522
4 16.293 10.862 -54.31
4 16.293 13.5775 -51.5945
4 19.0085 10.862 -51.5945
4 19.0085 13.5775 -54.31
4 17.6507 12.2197 -52.9522
4 17.6507 14.9352 -50.2368
4 20.3663 12.2197 -50.2368
4 20.3663 14.9352 -52.9522
4 21.724 10.862 -54.31
4 21.724 13.5775 -51.5945
4 24.4395 10.862 -51.5945
4 24.4395 13.5775 -54.31
4 23.0817 12.2197 -52.9522
4 23.0817 14.9352 -50.2368
4 25.7973 12.2197 -50.2368
4 25.7973 14.9352 -52.9522
4 27.155 10.862 -54.31
4 27.155 13.5775 -51.5945
4 29.8705 10.862 -51.5945
4 29.8705 13.5775 -54.31
4 28.5128 12.2197 -52.9522
4 28.5128 14.9352 -50.2368
4 31.2282 12.2197 -50.2368
4 31.2282 14.9352 -52.9522
4 32.586 10.862 -54.31
4 32.586 13.5775 -51.5945
4 35.3015 10.862 -51.5945
4 35.3015 13.5775 -54.31
4 33.9438 12.2197 -52.9522
4 33.9438 14.9352 -50.2368
4 36.6593 12.2197 -50.2368
4 36.6593 14.9352 -52.9522
4 38.017 10.862 -54.31
4 38.017 13.5775 -51.5945
4 40.7325 10.862 -51.5945
4 40.7325 13.5775 -54.31
4 39.3747 12.2197 -52.9522
4 39.3747 14.9352 -50.2368
4 42.0902 12.2197 -50.2368
4 42.0902 14.9352 -52.9522
4 43.448 10.862 -54.31
4 43.448 13.5775 -51.5945
4 46.1635 10.862 -51.5945
4 46.1635 13.5775 -54.31
4 44.8058 12.2197 -52.9522
4 44.8058 14.9352 -50.2368
4 47.5213 12.2197 -50.2368
4 47.5213 14.9352 -52.9522
4 48.879 10.862 -54.31
4 48.879 13.5775 -51.5945
4 51.5945 10.862 -51.5945
4 51.5945 13.5775 -54.31
4 50.2368 12.2197 -52.9522
4 50.2368 14.9352 -50.2368
4 52.9522 12.2197 -50.2368
4 52.9522 14.9352 -52.9522
4 0 16.293 -54.31
4 0 19.0085 -51.5945
4 2.7155 16.293 -51.5945
4 2.7155 19.0085 -54.31
4 1.35775 17.6507 -52.9522
4 1.35775 20.3663 -50.2368
4 4.07325 17.6507 -50.2368
4 4.07325 20.3663 -52.9522
4 5.431 16.293 -54.31
4 5.431 19.0085 -51.5945
4 8.1465 16.293 -51.5945
4 8.1465 19.0085 -54.31
4 6.78875 17.6507 -52.9522
4 6.78875 20.3663 -50.2368
4 9.50425 17.6507 -50.2368
4 9.50425 20.3663 -52.9522
4 10.862 16.293 -54.31
4 10.862 19.0085 -51.5945
4 13.5775 16.293 -51.5945
4 13.5775 19.0085 -54.31
4 12.2197 17.6507 -52.9522
4 12.2197 20.3663 -50.2368
4 14.9352 17.6507 -50.2368
4 14.9352 20.3663 -52.9522
4 16.293 16.293 -54.31
4 16.293 19.0085 -51.5945
4 19.0085 16.293 -51.5945
4 19.0085 19.0085 -54.31
4 17.6507 17.6507 -52.9522
4 17.6507 20.3663 -50.2368
4 20.3663 17.6507 -50.2368
4 20.3663 20.3663 -52.9522
4 21.724 16.293 -54.31
4 21.724 19.0085 -51.5945
4 24.4395 16.293 -51.5945
4 24.4395 19.0085 -54.31
4 23.0817 17.6507 -52.9522
4 23.0817 20.3663 -50.2368
4 25.7973 17.6507 -50.2368
4 25.7973 20.3663 -52.9522
4 27.155 16.293 -54.31
4 27.155 19.0085 -51.5945
4 29.8705 16.293 -51.5945
4 29.8705 19.0085 -54.31
4 28.5128 17.6507 -52.9522
4 28.5128 20.3663 -50.2368
4 31.2282 17.6507 -50.2368
4 31.2282 20.3663 -52.9522
4 32.586 16.293 -54.31
4 32.586 19.0085 -51.5945
4 35.3015 16.293 -51.5945
4 35.3015 19.0085 -54.31
4 33.9438 17.6507 -52.9522
4 33.9438 20.3663 -50.2368
4 36.6593 17.6507 -50.2368
4 36.6593 20.3663 -52.9522
4 38.017 16.293 -54.31
4 38.017 19.0085 -51.5945
4 40.7325 16.293 -51.5945
4 40.7325 19.0085 -54.31
4 39.3747 17.6507 -52.9522
4 39.3747 20.3663 -50.2368
4 42.0902 17.6507 -50.2368
4 42.0902 20.3663 -52.9522
4 43.448 16.293 -54.31
4 43.448 19.0085 -51.5945
4 46.1635 16.293 -51.5945
4 46.1635 19.0085 -54.31
4 44.8058 17.6507 -52.9522
4 44.8058 20.3663 -50.2368
4 47.5213 17.6507 -50.2368
4 47.5213 20.3663 -52.9522
4 48.879 16.293 -54.31
4 48.879 19.0085 -51.5945
4 51.5945 16.293 -51.5945
4 51.5945 19.0085 -54.31
4 50.2368 17.6507 -52.9522
4 50.2368 20.3663 -50.2368
4 52.9522 17.6507 -50.2368
4 52.9522 20.3663 -52.9522
4 0 21.724 -54.31
4 0 24.4395 -51.5945
4 2.7155 21.724 -51.5945
4 2.7155 24.4395 -54.31
4 1.35775 23.0817 -52.9522
4 1.35775 25.7973 -50.2368
4 4.07325 23.0817 -50.2368
4 4.07325 25.7973 -52.9522
4 5.431 21.724 -54.31
4 5.431 24.4395 -51.5945
4 8.1465 21.724 -51.5945
4 8.1465 24.4395 -54.31
4 6.78875 23.0817 -52.9522
4 6.78875 25.7973 -50.2368
4 9.50425 23.0817 -50.2368
4 9.50425 25.7973 -52.9522
4 10.862 21.724 -54.31
4 10.862 24.4395 -51.5945
4 13.5775 21.724 -51.5945
4 13.5775 24.4395 -54.31
4 12.2197 23.0817 -52.9522
4 12.2197 25.7973 -50.2368
4 14.9352 23.0817 -50.2368
4 14.9352 25.7973 -52.9522
4 16.293 21.724 -54.31
4 16.293 24.4395 -51.5945
4 19.0085 21.724 -51.5945
4 19.0085 24.4395 -54.31
4 17.6507 23.0817 -52.9522
4 17.6507 25.7973 -50.2368
4 20.3663 23.0817 -50.2368
4 20.3663 25.7973 -52.9522
4 21.724 21.724 -54.31
4 21.724 24.4395 -51.5945
4 24.4395 21.724 -51.5945
4 24.4395 24.4395 -54.31
4 23.0817 23.0817 -52.9522
4 23.0817 25.7973 -50.2368
4 25.7973 23.0817 -50.2368
4 25.7973 25.7973 -52.9522
4 27.155 21.724 -54.31
4 27.155 24.4395 -51.5945
4 29.8705 21.724 -51.5945
4 29.8705 24.4395 -54.31
4 28.5128 23.0817 -52.9522
4 28.5128 25.7973 -50.2368
4 31.2282 23.0817 -50.2368
4 31.2282 25.7973 -52.9522
4 32.586 21.724 -54.31
4 32.586 24.4395 -51.5945
4 35.3015 21.724 -51.5945
4 35.3015 24.4395 -54.31
4 33.9438 23.0817 -52.9522
4 33.9438 25.7973 -50.2368
4 36.6593 23.0817 -50.2368
4 36.6593 25.7973 -52.9522
4 38.017 21.724 -54.31
4 38.017 24.4395 -51.5945
4 40.7325 21.724 -51.5945
4 40.7325 24.4395 -54.31
4 39.3747 23.0817 -52.9522
4 39.3747 25.7973 -50.2368
4 42.0902 23.0817 -50.2368
4 42.0902 25.7973 -52.9522
4 43.448 21.724 -54.31
4 43.448 24.4395 -51.5945
4 46.1635 21.724 -51.5945
4 46.1635 24.4395 -54.31
4 44.8058 23.0817 -52.9522
4 44.8058 25.7973 -50.2368
4 47.5213 23.0817 -50.2368
4 47.5213 25.7973 -52.9522
4 48.879 21.724 -54.31
4 48.879 24.4395 -51.5945
4 51.5945 21.724 -51.5945
4 51.5945 24.4395 -54.31
4 50.2368 23.0817 -52.9522
4 50.2368 25.7973 -50.2368
4 52.9522 23.0817 -50.2368
4 52.9522 25.7973 -52.9522
4 0 27.155 -54.31
4 0 29.8705 -51.5945
4 2.7155 27.155 -51.5945
4 2.7155 29.8705 -54.31
4 1.35775 28.5128 -52.9522
4 1.35775 31.2282 -50.2368
4 4.07325 28.5128 -50.2368
4 4.07325 31.2282 -52.9522
4 5.431 27.155 -54.31
4 5.431 29.8705 -51.5945
4 8.1465 27.155 -51.5945
4 8.1465 29.8705 -54.31
4 6.78875 28.5128 -52.9522
4 6.78875 31.2282 -50.2368
4 9.50425 28.5128 -50.2368
4 9.50425 31.2282 -52.9522
4 10.862 27.155 -54.31
4 10.862 29.8705 -51.5945
4 13.5775 27.155 -51.5945
4 13.5775 29.8705 -54.31
4 12.2197 28.5128 -52.9522
4 12.2197 31.2282 -50.2368
4 14.9352 28.5128 -50.2368
4 14.9352 31.2282 -52.9522
4 16.293 27.155 -54.31
4 16.293 29.8705 -51.5945
4 19.0085 27.155 -51.5945
4 19.0085 29.8705 -54.31
4 17.6507 28.5128 -52.9522
4 17.6507 31.2282 -50.2368
4 20.3663 28.5128 -50.2368
4 20.3663 31.2282 -52.9522
4 21.724 27.155 -54.31
4 21.724 29.8705 -51.5945
4 24.4395 27.155 -51.5945
4 24.4395 29.8705 -54.31
4 23.0817 28.5128 -52.9522
4 23.0817 31.2282 -50.2368
4 25.7973 28.5128 -50.2368
4 25.7973 31.2282 -52.9522
4 27.155 27.155 -54.31
4 27.155 29.8705 -51.5945
4 29.8705 27.155 -51.5945
4 29.8705 29.8705 -54.31
4 28.5128 28.5128 -52.9522
4 28.5128 31.2282 -50.2368
4 31.2282 28.5128 -50.2368
4 31.2282 31.2282 -52.9522
4 32.586 27.155 -54.31
4 32.586 29.8705 -51.5945
4 35.3015 27.155 -51.5945
4 35.3015 29.8705 -54.31
4 33.9438 28.5128 -52.9522
4 33.9438 31.2282 -50.2368
4 36.6593 28.5128 -50.2368
4 36.6593 31.2282 -52.9522
4 38.017 27.155 -54.31
4 38.017 29.8705 -51.5945
4 40.7325 27.155 -51.5945
4 40.7325 29.8705 -54.31
4 39.3747 28.5128 -52.9522
4 39.3747 31.2282 -50.2368
4 42.0902 28.5128 -50.2368
4 42.0902 31.2282 -52.9522
4 43.448 27.155 -54.31
4 43.448 29.8705 -51.5945
4 46.1635 27.155 -51.5945
4 46.1635 29.8705 -54.31
4 44.8058 28.5128 -52.9522
4 44.8058 31.2282 -50.2368
4 47.5213 28.5128 -50.2368
4 47.5213 31.2282 -52.9522
4 48.879 27.155 -54.31
4 48.879 29.8705 -51.5945
4 51.5945 27.155 -51.5945
4 51.5945 29.8705 -54.31
4 50.2368 28.5128 -52.9522
4 50.2368 31.2282 -50.2368
4 52.9522 28.5128 -50.2368
4 52.9522 31.2282 -52.9522
4 0 32.586 -54.31
4 0 35.3015 -51.5945
4 2.7155 32.586 -51.5945
4 2.7155 35.3015 -54.31
4 1.35775 33.9438 -52.9522
4 1.35775 36.6593 -50.2368
4 4.07325 33.9438 -50.2368
4 4.07325 36.6593 -52.9522
4 5.431 32.586 -54.31
4 5.431 35.3015 -51.5945
4 8.1465 32.586 -51.5945
4 8.1465 35.3015 -54.31
4 6.78875 33.9438 -52.9522
4 6.78875 36.6593 -50.2368
4 9.50425 33.9438 -50.2368
4 9.50425 36.6593 -52.9522
4 10.862 32.586 -54.31
4 10.862 35.3015 -51.5945
4 13.5775 32.586 -51.5945
4 13.5775 35.3015 -54.31
4 12.2197 33.9438 -52.9522
4 12.2197 36.6593 -50.2368
4 14.9352 33.9438 -50.2368
4 14.9352 36.6593 -52.9522
4 16.293 32.586 -54.31
4 16.293 35.3015 -51.5945
4 19.0085 32.586 -51.5945
4 19.0085 35.3015 -54.31
4 17.6507 33.9438 -52.9522
4 17.6507 36.6593 -50.2368
4 20.3663 33.9438 -50.2368
4 20.3663 36.6593 -52.9522
4 21.724 32.586 -54.31
4 21.724 35.3015 -51.5945
4 24.4395 32.586 -51.5945
4 24.4395 35.3015 -54.31
4 23.0817 33.9438 -52.9522
4 23.0817 36.6593 -50.2368
4 25.7973 33.9438 -50.2368
4 25.7973 36.6593 -52.9522
4 27.155 32.586 -54.31
4 27.155 35.3015 -51.5945
4 29.8705 32.586 -51.5945
4 29.8705 35.3015 -54.31
4 28.5128 33.9438 -52.9522
4 28.5128 36.6593 -50.2368
4 31.2282 33.9438 -50.2368
4 31.2282 36.6593 -52.9522
4 32.586 32.586 -54.31
4 32.586 35.3015 -51.5945
4 35.3015 32.586 -51.5945
4 35.3015 35.3015 -54.31
4 33.9438 33.9438 -52.9522
4 33.9438 36.6593 -50.2368
4 36.6593 33.9438 -50.2368
4 36.6593 36.6593 -52.9522
4 38.017 32.586 -54.31
4 38.017 35.3015 -51.5945
4 40.7325 32.586 -51.5945
4 40.7325 35.3015 -54.31
4 39.3747 33.9438 -52.9522
4 39.3747 36.6593 -50.2368
4 42.0902 33.9438 -50.2368
4 42.0902 36.6593 -52.9522
4 43.448 32.586 -54.31
4 43.448 35.3015 -51.5945
4 46.1635 32.586 -51.5945
4 46.1635 35.3015 -54.31
4 44.8058 33.9438 -52.9522
4 44.8058 36.6593 -50.2368
4 47.5213 33.9438 -50.2368
4 47.5213 36.6593 -52.9522
4 48.879 32.586 -54.31
4 48.879 35.3015 -51.5945
4 51.5945 32.586 -51.5945
4 51.5945 35.3015 -54.31
4 50.2368 33.9438 -52.9522
4 50.2368 36.6593 -50.2368
4 52.9522 33.9438 -50.2368
4 52.9522 36.6593 -52.9522
4 0 38.017 -54.31
4 0 40.7325 -51.5945
4 2.7155 38.017 -51.5945
4 2.7155 40.7325 -54.31
4 1.35775 39.3747 -52.9522
4 1.35775 42.0902 -50.2368
4 4.07325 39.3747 -50.2368
4 4.07325 42.0902 -52.9522
4 5.431 38.017 -54.31
4 5.431 40.7325 -51.5945
4 8.1465 38.017 -51.5945
4 8.1465 40.7325 -54.31
4 6.78875 39.3747 -52.9522
4 6.78875 42.0902 -50.2368
4 9.50425 39.3747 -50.2368
4 9.50425 42.0902 -52.9522
4 10.862 38.017 -54.31
4 10.862 40.7325 -51.5945
4 13.5775 38.017 -51.5945
4 13.5775 40.7325 -54.31
4 12.2197 39.3747 -52.9522
4 12.2197 42.0902 -50.2368
4 14.9352 39.3747 -50.2368
4 14.9352 42.0902 -52.9522
4 16.293 38.017 -54.31
4 16.293 40.7325 -51.5945
4 19.0085 38.017 -51.5945
4 19.0085 40.7325 -54.31
4 17.6507 39.3747 -52.9522
4 17.6507 42.0902 -50.2368
4 20.3663 39.3747 -50.2368
4 20.3663 42.0902 -52.9522
4 21.724 38.017 -54.31
4 21.724 40.7325 -51.5945
4 24.4395 38.017 -51.5945
4 24.4395 40.7325 -54.31
4 23.0817 39.3747 -52.9522
4 23.0817 42.0902 -50.2368
4 25.7973 39.3747 -50.2368
4 25.7973 42.0902 -52.9522
4 27.155 38.017 -54.31
4 27.155 40.7325 -51.5945
4 29.8705 38.017 -51.5945
4 29.8705 40.7325 -54.31
4 28.5128 39.3747 -52.9522
4 28.5128 42.0902 -50.2368
4 31.2282 39.3747 -50.2368
4 31.2282 42.0902 -52.9522
4 32.586 38.017 -54.31
4 32.586 40.7325 -51.5945
4 35.3015 38.017 -51.5945
4 35.3015 40.7325 -54.31
4 33.9438 39.3747 -52.9522
4 33.9438 42.0902 -50.2368
4 36.6593 39.3747 -50.2368
4 36.6593 42.0902 -52.9522
4 38.017 38.017 -54.31
4 38.017 40.7325 -51.5945
4 40.7325 38.017 -51.5945
4 40.7325 40.7325 -54.31
4 39.3747 39.3747 -52.9522
4 39.3747 42.0902 -50.2368
4 42.0902 39.3747 -50.2368
4 42.0902 42.0902 -52.9522
4 43.448 38.017 -54.31
4 43.448 40.7325 -51.5945
4 46.1635 38.017 -51.5945
4 46.1635 40.7325 -54.31
4 44.8058 39.3747 -52.9522
4 44.8058 42.0902 -50.2368
4 47.5213 39.3747 -50.2368
4 47.5213 42.0902 -52.9522
4 48.879 38.017 -54.31
4 48.879 40.7325 -51.5945
4 51.5945 38.017 -51.5945
4 51.5945 40.7325 -54.31
4 50.2368 39.3747 -52.9522
4 50.2368 42.0902 -50.2368
4 52.9522 39.3747 -50.2368
4 52.9522 42.0902 -52.9522
4 0 43.448 -54.31
4 0 46.1635 -51.5945
4 2.7155 43.448 -51.5945
4 2.7155 46.1635 -54.31
4 1.35775 44.8058 -52.9522
4 1.35775 47.5213 -50.2368
4 4.07325 44.8058 -50.2368
4 4.07325 47.5213 -52.9522
4 5.431 43.448 -54.31
4 5.431 46.1635 -51.5945
4 8.1465 43.448 -51.5945
4 8.1465 46.1635 -54.31
4 6.78875 44.8058 -52.9522
4 6.78875 47.5213 -50.2368
4 9.50425 44.8058 -50.2368
4 9.50425 47.5213 -52.9522
4 10.862 43.448 -54.31
4 10.862 46.1635 -51.5945
4 13.5775 43.448 -51.5945
4 13.5775 46.1635 -54.31
4 12.2197 44.8058 -52.9522
4 12.2197 47.5213 -50.2368
4 14.9352 44.8058 -50.2368
4 14.9352 47.5213 -52.9522
4 16.293 43.448 -54.31
4 16.293 46.1635 -51.5945
4 19.0085 43.448 -51.5945
4 19.0085 46.1635 -54.31
4 17.6507 44.8058 -52.9522
4 17.6507 47.5213 -50.2368
4 20.3663 44.8058 -50.2368
4 20.3663 47.5213 -52.9522
4 21.724 43.448 -54.31
4 21.724 46.1635 -51.5945
4 24.4395 43.448 -51.5945
4 24.4395 46.1635 -54.31
4 23.0817 44.8058 -52.9522
4 23.0817 47.5213 -50.2368
4 25.7973 44.8058 -50.2368
4 25.7973 47.5213 -52.9522
4 27.155 43.448 -54.31
4 27.155 46.1635 -51.5945
4 29.8705 43.448 -51.5945
4 29.8705 46.1635 -54.31
4 28.5128 44.8058 -52.9522
4 28.5128 47.5213 -50.2368
4 31.2282 44.8058 -50.2368
4 31.2282 47.5213 -52.9522
4 32.586 43.448 -54.31
4 32.586 46.1635 -51.5945
4 35.3015 43.448 -51.5945
4 35.3015 46.1635 -54.31
4 33.9438 44.8058 -52.9522
4 33.9438 47.5213 -50.2368
4 36.6593 44.8058 -50.2368
4 36.6593 47.5213 -52.9522
4 38.017 43.448 -54.31
4 38.017 46.1635 -51.5945
4 40.7325 43.448 -51.5945
4 40.7325 46.1635 -54.31
4 39.3747 44.8058 -52.9522
4 39.3747 47.5213 -50.2368
4 42.0902 44.8058 -50.2368
4 42.0902 47.5213 -52.9522
4 43.448 43.448 -54.31
4 43.448 46.1635 -51.5945
4 46.1635 43.448 -51.5945
4 46.1635 46.1635 -54.31
4 44.8058 44.8058 -52.9522
4 44.8058 47.5213 -50.2368
4 47.5213 44.8058 -50.2368
4 47.5213 47.5213 -52.9522
4 48.879 43.448 -54.31
4 48.879 46.1635 -51.5945
4 51.5945 43.448 -51.5945
4 51.5945 46.1635 -54.31
4 50.2368 44.8058 -52.9522
4 50.2368 47.5213 -50.2368
4 52.9522 44.8058 -50.2368
4 52.9522 47.5213 -52.9522
4 0 48.879 -54.31
4 0 51.5945 -51.5945
4 2.7155 48.879 -51.5945
4 2.7155 51.5945 -54.31
4 1.35775 50.2368 -52.9522
4 1.35775 52.9522 -50.2368
4 4.07325 50.2368 -50.2368
4 4.07325 52.9522 -52.9522
4 5.431 48.879 -54.31
4 5.431 51.5945 -51.5945
4 8.1465 48.879 -51.5945
4 8.1465 51.5945 -54.31
4 6.78875 50.2368 -52.9522
4 6.78875 52.9522 -50.2368
4 9.50425 50.2368 -50.2368
4 9.50425 52.9522 -52.9522
4 10.862 48.879 -54.31
4 10.862 51.5945 -51.5945
4 13.5775 48.879 -51.5945
4 13.5775 51.5945 -54.31
4 12.2197 50.2368 -52.9522
4 12.2197 52.9522 -50.2368
4 14.9352 50.2368 -50.2368
4 14.9352 52.9522 -52.9522
4 16.293 48.879 -54.31
4 16.293 51.5945 -51.5945
4 19.0085 48.879 -51.5945
4 19.0085 51.5945 -54.31
4 17.6507 50.2368 -52.9522
4 17.6507 52.9522 -50.2368
4 20.3663 50.2368 -50.2368
4 20.3663 52.9522 -52.9522
4 21.724 48.879 -54.31
4 21.724 51.5945 -51.5945
4 24.4395 48.879 -51.5945
4 24.4395 51.5945 -54.31
4 23.0817 50.2368 -52.9522
4 23.0817 52.9522 -50.2368
4 25.7973 50.2368 -50.2368
4 25.7973 52.9522 -52.9522
4 27.155 48.879 -54.31
4 27.155 51.5945 -51.5945
4 29.8705 48.879 -51.5945
4 29.8705 51.5945 -54.31
4 28.5128 50.2368 -52.9522
4 28.5128 52.9522 -50.2368
4 31.2282 50.2368 -50.2368
4 31.2282 52.9522 -52.9522
4 32.586 48.879 -54.31
4 32.586 51.5945 -51.5945
4 35.3015 48.879 -51.5945
4 35.3015 51.5945 -54.31
4 33.9438 50.2368 -52.9522
4 33.9438 52.9522 -50.2368
4 36.6593 50.2368 -50.2368
4 36.6593 52.9522 -52.9522
4 38.017 48.879 -54.31
4 38.017 51.5945 -51.5945
4 40.7325 48.879 -51.5945
4 40.7325 51.5945 -54.31
4 39.3747 50.2368 -52.9522
4 39.3747 52.9522 -50.2368
4 42.0902 50.2368 -50.2368
4 42.0902 52.9522 -52.9522
4 43.448 48.879 -54.31
4 43.448 51.5945 -51.5945
4 46.1635 48.879 -51.5945
4 46.1635 51.5945 -54.31
4 44.8058 50.2368 -52.9522
4 44.8058 52.9522 -50.2368
4 47.5213 50.2368 -50.2368
4 47.5213 52.9522 -52.9522
4 48.879 48.879 -54.31
4 48.879 51.5945 -51.5945
4 51.5945 48.879 -51.5945
4 51.5945 51.5945 -54.31
4 50.2368 50.2368 -52.9522
4 50.2368 52.9522 -50.2368
4 52.9522 50.2368 -50.2368
4 52.9522 52.9522 -52.9522
4 0 0 -48.879
3 2.5827 54.3349 -45.8001
4 2.7155 2.7155 -48.879
4 1.35775 1.35775 -47.5213
3 1.23528 3.98607 -44.4101
3 4.04123 1.30273 -44.4893
4 4.07325 4.07325 -47.5213
4 5.431 0 -48.879
3 5.42322 2.68408 -45.8059
3 8.15168 0.0101805 -45.8783
4 8.1465 2.7155 -48.879
4 6.78875 1.35775 -47.5213
3 6.73776 4.15134 -44.4222
3 9.54086 1.34572 -44.3941
4 9.50425 4.07325 -47.5213
4 10.862 0 -48.879
3 10.8698 2.72104 -45.9299
3 13.5841 0.00062293 -45.8714
4 13.5775 2.7155 -48.879
4 12.2197 1.35775 -47.5213
3 12.2285 3.99376 -44.3967
3 15.0066 1.31877 -44.3826
4 14.9352 4.07325 -47.5213
4 16.293 0 -48.879
3 16.3034 2.76452 -45.8617
1 19.0319 -0.00764846 -45.8511
4 19.0085 2.7155 -48.879
4 17.6507 1.35775 -47.5213
1 17.6873 4.10257 -44.4479
1 20.319 1.4368 -44.4746
4 20.3663 4.07325 -47.5213
4 21.724 0 -48.879
1 21.6682 2.80523 -45.8005
1 24.4591 0.0286676 -45.8529
4 24.4395 2.7155 -48.879
4 23.0817 1.35775 -47.5213
1 23.0004 4.16976 -44.4757
1 25.7577 1.52624 -44.3633
4 25.7973 4.07325 -47.5213
4 27.155 0 -48.879
1 27.2223 2.84242 -45.8819
1 29.9605 0.0624183 -45.9054
4 29.8705 2.7155 -48.879
4 28.5128 1.35775 -47.5213
1 28.5129 4.21126 -44.3475
1 31.2852 1.33717 -44.4293
4 31.2282 4.07325 -47.5213
4 32.586 0 -48.879
1 32.5431 2.67374 -45.8788
1 35.2845 54.3176 -45.9055
4 35.3015 2.7155 -48.879
4 33.9438 1.35775 -47.5213
1 33.8075 4.08762 -44.4079
1 36.5884 1.29576 -44.5072
4 36.6593 4.07325 -47.5213
4 38.017 0 -48.879
1 38.0121 2.68124 -45.9059
1 40.7885 54.2461 -45.738
4 40.7325 2.7155 -48.879
4 39.3747 1.35775 -47.5213
1 39.4245 4.03189 -44.5448
1 42.1301 1.33603 -44.3974
4 42.0902 4.07325 -47.5213
4 43.448 0 -48.879
1 43.5143 2.68294 -45.8557
1 46.1793 54.2777 -45.7935
4 46.1635 2.7155 -48.879
4 44.8058 1.35775 -47.5213
1 44.8269 4.06926 -44.3876
1 47.522 1.34692 -44.3982
4 47.5213 4.07325 -47.5213
4 48.879 0 -48.879
1 48.9344 2.72032 -45.8308
1 51.6068 -0.0218262 -45.7465
4 51.5945 2.7155 -48.879
4 50.2368 1.35775 -47.5213
1 50.2671 4.18021 -44.3134
1 52.9906 1.43311 -44.394
4 52.9522 4.07325 -47.5213
4 0 5.431 -48.879
3 2.6432 5.44197 -45.7814
4 2.7155 8.1465 -48.879
4 1.35775 6.78875 -47.5213
3 1.3827 9.58258 -44.4011
3 4.04578 6.77464 -44.3296
4 4.07325 9.50425 -47.5213
4 5.431 5.431 -48.879
3 5.34213 8.15102 -45.8383
3 8.1496 5.39021 -45.9278
4 8.1465 8.1465 -48.879
4 6.78875 6.78875 -47.5213
3 6.79343 9.43454 -44.4546
3 9.52451 6.76056 -44.4069
4 9.50425 9.50425 -47.5213
4 10.862 5.431 -48.879
3 10.8503 8.18587 -45.8796
3 13.6001 5.39715 -45.8226
4 13.5775 8.1465 -48.879
4 12.2197 6.78875 -47.5213
3 12.2093 9.41639 -44.3612
3 14.8836 6.75969 -44.4058
4 14.9352 9.50425 -47.5213
4 16.293 5.431 -48.879
3 16.2679 8.08129 -45.8688
1 19.0138 5.45046 -45.9436
4 19.0085 8.1465 -48.879
4 17.6507 6.78875 -47.5213
1 17.6262 9.56331 -44.4291
1 20.2867 6.92372 -44.4567
4 20.3663 9.50425 -47.5213
4 21.724 5.431 -48.879
1 21.7812 8.15601 -45.7858
1 24.3669 5.43514 -45.8587
4 24.4395 8.1465 -48.879
4 23.0817 6.78875 -47.5213
1 23.1241 9.58446 -44.4315
1 25.6953 6.75652 -44.3343
4 25.7973 9.50425 -47.5213
4 27.155 5.431 -48.879
1 27.1829 8.12666 -45.8042
1 29.8966 5.40688 -45.888
4 29.8705 8.1465 -48.879
4 28.5128 6.78875 -47.5213
1 28.4447 9.48601 -44.4038
1 31.1231 6.85404 -44.4764
4 31.2282 9.50425 -47.5213
4 32.586 5.431 -48.879
1 32.5859 8.22055 -45.8725
1 35.3136 5.41389 -45.8505
4 35.3015 8.1465 -48.879
4 33.9438 6.78875 -47.5213
1 34.0616 9.45943 -44.4772
1 36.6617 6.76676 -44.4377
4 36.6593 9.50425 -47.5213
4 38.017 5.431 -48.879
1 37.9833 8.14825 -45.9121
1 40.8231 5.35506 -45.8878
4 40.7325 8.1465 -48.879
4 39.3747 6.78875 -47.5213
1 39.2802 9.51753 -44.3923
1 42.0502 6.81079 -44.3707
4 42.0902 9.50425 -47.5213
4 43.448 5.431 -48.879
1 43.4599 8.09674 -45.834
1 46.2009 5.46946 -45.8905
4 46.1635 8.1465 -48.879
4 44.8058 6.78875 -47.5213
1 44.6646 9.46646 -44.3613
1 47.4893 6.88972 -44.414
4 47.5213 9.50425 -47.5213
4 48.879 5.431 -48.879
1 48.8391 8.20701 -45.8816
1 51.648 5.46063 -45.8362
4 51.5945 8.1465 -48.879
4 50.2368 6.78875 -47.5213
1 50.0917 9.57502 -44.4023
1 52.8304 6.82479 -44.246
4 52.9522 9.50425 -47.5213
4 0 10.862 -48.879
3 2.66519 11.0131 -45.7987
4 2.7155 13.5775 -48.879
4 1.35775 12.2197 -47.5213
3 1.56489 14.6844 -44.64
3 4.16852 12.1758 -44.4066
4 4.07325 14.9352 -47.5213
4 5.431 10.862 -48.879
3 5.37161 13.5788 -45.9329
3 8.18807 10.9428 -45.7659
4 8.1465 13.5775 -48.879
4 6.78875 12.2197 -47.5213
3 6.77054 14.7524 -44.2863
3 9.61494 12.2178 -44.3876
4 9.50425 14.9352 -47.5213
4 10.862 10.862 -48.879
3 10.8384 13.5757 -45.8584
3 13.5897 10.8361 -45.8474
4 13.5775 13.5775 -48.879
4 12.2197 12.2197 -47.5213
3 12.2718 14.8048 -44.3708
3 15.0259 12.1926 -44.3538
4 14.9352 14.9352 -47.5213
4 16.293 10.862 -48.879
3 16.3366 13.6034 -45.8169
1 19.0398 10.8984 -45.8448
4 19.0085 13.5775 -48.879
4 17.6507 12.2197 -47.5213
1 17.5772 14.9641 -44.3411
1 20.3295 12.3287 -44.4407
4 20.3663 14.9352 -47.5213
4 21.724 10.862 -48.879
1 21.7273 13.6299 -45.9188
1 24.5034 10.8761 -45.8332
4 24.4395 13.5775 -48.879
4 23.0817 12.2197 -47.5213
1 23.0861 14.9589 -44.4126
1 25.7802 12.2314 -44.4082
4 25.7973 14.9352 -47.5213
4 27.155 10.862 -48.879
1 27.1018 13.6019 -45.8729
1 29.9127 10.787 -45.8602
4 29.8705 13.5775 -48.879
4 28.5128 12.2197 -47.5213
1 28.5096 14.9713 -44.4287
1 31.3192 12.2426 -44.5051
4 31.2282 14.9352 -47.5213
4 32.586 10.862 -48.879
1 32.6284 13.655 -45.879
1 35.299 10.813 -45.9504
4 35.3015 13.5775 -48.879
4 33.9438 12.2197 -47.5213
1 34.0101 14.9034 -44.4261
1 36.6258 12.1887 -44.5262
4 36.6593 14.9352 -47.5213
4 38.017 10.862 -48.879
1 37.9695 13.6251 -45.8412
1 40.7379 10.9119 -45.918
4 40.7325 13.5775 -48.879
4 39.3747 12.2197 -47.5213
1 39.4053 14.8892 -44.4829
1 42.0966 12.2043 -44.4126
4 42.0902 14.9352 -47.5213
4 43.448 10.862 -48.879
1 43.4805 13.5429 -45.7764
1 46.1781 10.8212 -45.819
4 46.1635 13.5775 -48.879
4 44.8058 12.2197 -47.5213
1 44.7579 14.9069 -44.4141
1 47.4927 12.2079 -44.4069
4 47.5213 14.9352 -47.5213
4 48.879 10.862 -48.879
1 48.8667 13.5462 -45.8292
1 51.5722 10.8357 -45.8305
4 51.5945 13.5775 -48.879
4 50.2368 12.2197 -47.5213
1 50.2445 15.0178 -44.4062
1 52.9323 12.0604 -44.3524
4 52.9522 14.9352 -47.5213
4 0 16.293 -48.879
3 2.6965 16.2775 -45.9222
4 2.7155 19.0085 -48.879
4 1.35775 17.6507 -47.5213
3 1.51901 20.5711 -44.1487
3 4.14289 17.6413 -44.3973
4 4.07325 20.3663 -47.5213
4 5.431 16.293 -48.879
3 5.4414 18.9952 -45.8797
3 8.1425 16.2901 -45.8268
4 8.1465 19.0085 -48.879
4 6.78875 17.6507 -47.5213
3 6.84576 20.1673 -44.4213
3 9.52244 17.6299 -44.388
4 9.50425 20.3663 -47.5213
4 10.862 16.293 -48.879
3 10.846 19.0485 -45.8586
3 13.6218 16.224 -45.8399
4 13.5775 19.0085 -48.879
4 12.2197 17.6507 -47.5213
3 12.1847 20.3584 -44.4265
3 14.8647 17.6206 -44.4278
4 14.9352 20.3663 -47.5213
4 16.293 16.293 -48.879
3 16.2012 18.9911 -45.8034
1 19.0391 16.3045 -45.8122
4 19.0085 19.0085 -48.879
4 17.6507 17.6507 -47.5213
1 17.5548 20.2136 -44.4115
1 20.3326 17.686 -44.4982
4 20.3663 20.3663 -47.5213
4 21.724 16.293 -48.879
1 21.7645 19.0031 -45.8894
1 24.4285 16.2759 -45.8313
4 24.4395 19.0085 -48.879
4 23.0817 17.6507 -47.5213
1 23.0314 20.3395 -44.3774
1 25.7266 17.7012 -44.4446
4 25.7973 20.3663 -47.5213
4 27.155 16.293 -48.879
1 27.1148 19.1042 -45.9092
1 29.8124 16.3027 -45.9349
4 29.8705 19.0085 -48.879
4 28.5128 17.6507 -47.5213
1 28.5233 20.2976 -44.4392
1 31.2111 17.5513 -44.4257
4 31.2282 20.3663 -47.5213
4 32.586 16.293 -48.879
1 32.5113 18.9571 -45.9377
1 35.43 16.3455 -45.7586
4 35.3015 19.0085 -48.879
4 33.9438 17.6507 -47.5213
1 33.9357 20.2668 -44.3493
1 36.6842 17.7418 -44.3822
4 36.6593 20.3663 -47.5213
4 38.017 16.293 -48.879
1 38.009 19.0417 -45.9252
1 40.71 16.283 -45.8663
4 40.7325 19.0085 -48.879
4 39.3747 17.6507 -47.5213
1 39.3843 20.2791 -44.4136
1 42.0361 17.6128 -44.4255
4 42.0902 20.3663 -47.5213
4 43.448 16.293 -48.879
1 43.4353 19.0269 -45.7577
1 46.0572 16.3399 -45.8164
4 46.1635 19.0085 -48.879
4 44.8058 17.6507 -47.5213
1 44.7692 20.4405 -44.3349
1 47.501 17.6876 -44.3654
4 47.5213 20.3663 -47.5213
4 48.879 16.293 -48.879
1 48.9541 19.0327 -45.7614
1 51.7535 16.3871 -45.8065
4 51.5945 19.0085 -48.879
4 50.2368 17.6507 -47.5213
1 50.3026 20.3835 -44.2907
1 53.0563 17.6968 -44.4464
4 52.9522 20.3663 -47.5213
4 0 21.724 -48.879
3 2.66972 21.7189 -45.8973
4 2.7155 24.4395 -48.879
4 1.35775 23.0817 -47.5213
3 1.58801 25.6529 -44.389
3 4.18702 22.9724 -44.4275
4 4.07325 25.7973 -47.5213
4 5.431 21.724 -48.879
3 5.42501 24.4942 -45.8144
3 8.12233 21.6756 -45.8614
4 8.1465 24.4395 -48.879
4 6.78875 23.0817 -47.5213
3 6.78834 25.7609 -44.4096
3 9.49832 23.0299 -44.4226
4 9.50425 25.7973 -47.5213
4 10.862 21.724 -48.879
3 10.8897 24.4238 -45.8691
3 13.5155 21.7958 -45.8553
4 13.5775 24.4395 -48.879
4 12.2197 23.0817 -47.5213
3 12.3194 25.8057 -44.4196
3 14.9684 23.1537 -44.4243
4 14.9352 25.7973 -47.5213
4 16.293 21.724 -48.879
3 16.2815 24.54 -45.8519
1 19.0121 21.6773 -45.8856
4 19.0085 24.4395 -48.879
4 17.6507 23.0817 -47.5213
1 17.653 25.7946 -44.3959
1 20.4181 23.1157 -44.4651
4 20.3663 25.7973 -47.5213
4 21.724 21.724 -48.879
1 21.7839 24.4809 -45.9322
1 24.3871 21.7296 -45.8016
4 24.4395 24.4395 -48.879
4 23.0817 23.0817 -47.5213
1 23.0928 25.8608 -44.4764
1 25.8045 23.0488 -44.5139
4 25.7973 25.7973 -47.5213
4 27.155 21.724 -48.879
1 27.208 24.3666 -45.961
1 29.8318 21.6399 -45.8781
4 29.8705 24.4395 -48.879
4 28.5128 23.0817 -47.5213
1 28.4627 25.753 -44.5562
1 31.2067 23.0719 -44.5407
4 31.2282 25.7973 -47.5213