15324
 Atoms. Timestep: 75000
4 0 0 -54.31
4 0 2.7155 -51.5945
4 2.7155 0 -51.5945
4 2.7155 2.7155 -54.31
4 1.35775 1.35775 -52.9522
4 1.35775 4.07325 -50.2368
4 4.07325 1.35775 -50.2368
4 4.07325 4.07325 -52.9522
4 5.431 0 -54.31
4 5.431 2.7155 -51.5945
4 8.1465 0 -51.5945
4 8.1465 2.7155 -54.31
4 6.78875 1.35775 -52.9522
4 6.78875 4.07325 -50.2368
4 9.50425 1.35775 -50.2368
4 9.50425 4.07325 -52.9522
4 10.862 0 -54.31
4 10.862 2.7155 -51.5945
4 13.5775 0 -51.5945
4 13.5775 2.7155 -54.31
4 12.2197 1.35775 -52.9522
4 12.2197 4.07325 -50.2368
4 14.9352 1.35775 -50.2368
4 14.9352 4.07325 -52.9522
4 16.293 0 -54.31
4 16.293 2.7155 -51.5945
4 19.0085 0 -51.5945
4 19.0085 2.7155 -54.31
4 17.6507 1.35775 -52.9522
4 17.6507 4.07325 -50.2368
4 20.3663 1.35775 -50.2368
4 20.3663 4.07325 -52.9522
4 21.724 0 -54.31
4 21.724 2.7155 -51.5945
4 24.4395 0 -51.5945
4 24.4395 2.7155 -54.31
4 23.0817 1.35775 -52.9522
4 23.0817 4.07325 -50.2368
4 25.7973 1.35775 -50.2368
4 25.7973 4.07325 -52.9522
4 27.155 0 -54.31
4 27.155 2.7155 -51.5945
4 29.8705 0 -51.5945
4 29.8705 2.7155 -54.31
4 28.5128 1.35775 -52.9522
4 28.5128 4.07325 -50.2368
4 31.2282 1.35775 -50.2368
4 31.2282 4.07325 -52.9522
4 32.586 0 -54.31
4 32.586 2.7155 -51.5945
4 35.3015 0 -51.5945
4 35.3015 2.7155 -54.31
4 33.9438 1.35775 -52.9522
4 33.9438 4.07325 -50.2368
4 36.6593 1.35775 -50.2368
4 36.6593 4.07325 -52.9522
4 38.017 0 -54.31
4 38.017 2.7155 -51.5945
4 40.7325 0 -51.5945
4 40.7325 2.7155 -54.31
4 39.3747 1.35775 -52.9522
4 39.3747 4.07325 -50.2368
4 42.0902 1.35775 -50.2368
4 42.0902 4.07325 -52.9522
4 43.448 0 -54.31
4 43.448 2.7155 -51.5945
4 46.1635 0 -51.5945
4 46.1635 2.7155 -54.31
4 44.8058 1.35775 -52.9522
4 44.8058 4.07325 -50.2368
4 47.5213 1.35775 -50.2368
4 47.5213 4.07325 -52.9522
4 48.879 0 -54.31
4 48.879 2.7155 -51.5945
4 51.5945 0 -51.5945
4 51.5945 2.7155 -54.31
4 50.2368 1.35775 -52.9522
4 50.2368 4.07325 -50.2368
4 52.9522 1.35775 -50.2368
4 52.9522 4.07325 -52.9522
4 0 5.431 -54.31
4 0 8.1465 -51.5945
4 2.7155 5.431 -51.5945
4 2.7155 8.1465 -54.31
4 1.35775 6.78875 -52.9522
4 1.35775 9.50425 -50.2368
4 4.07325 6.78875 -50.2368
4 4.07325 9.50425 -52.9522
4 5.431 5.431 -54.31
4 5.431 8.1465 -51.5945
4 8.1465 5.431 -51.5945
4 8.1465 8.1465 -54.31
4 6.78875 6.78875 -52.9522
4 6.78875 9.50425 -50.2368
4 9.50425 6.78875 -50.2368
4 9.50425 9.50425 -52.9522
4 10.862 5.431 -54.31
4 10.862 8.1465 -51.5945
4 13.5775 5.431 -51.5945
4 13.5775 8.1465 -54.31
4 12.2197 6.78875 -52.9522
4 12.2197 9.50425 -50.2368
4 14.9352 6.78875 -50.2368
4 14.9352 9.50425 -52.9522
4 16.293 5.431 -54.31
4 16.293 8.1465 -51.5945
4 19.0085 5.431 -51.5945
4 19.0085 8.1465 -54.31
4 17.6507 6.78875 -52.9522
4 17.6507 9.50425 -50.2368
4 20.3663 6.78875 -50.2368
4 20.3663 9.50425 -52.9522
4 21.724 5.431 -54.31
4 21.724 8.1465 -51.5945
4 24.4395 5.431 -51.5945
4 24.4395 8.1465 -54.31
4 23.0817 6.78875 -52.9522
4 23.0817 9.50425 -50.2368
4 25.7973 6.78875 -50.2368
4 25.7973 9.50425 -52.9522
4 27.155 5.431 -54.31
4 27.155 8.1465 -51.5945
4 29.8705 5.431 -51.5945
4 29.8705 8.1465 -54.31
4 28.5128 6.78875 -52.9522
4 28.5128 9.50425 -50.2368
4 31.2282 6.78875 -50.2368
4 31.2282 9.50425 -52.9522
4 32.586 5.431 -54.31
4 32.586 8.1465 -51.5945
4 35.3015 5.431 -51.5945
4 35.3015 8.1465 -54.31
4 33.9438 6.78875 -52.9522
4 33.9438 9.50425 -50.2368
4 36.6593 6.78875 -50.2368
4 36.6593 9.50425 -52.9522
4 38.017 5.431 -54.31
4 38.017 8.1465 -51.5945
4 40.7325 5.431 -51.5945
4 40.7325 8.1465 -54.31
4 39.3747 6.78875 -52.9522
4 39.3747 9.50425 -50.2368
4 42.0902 6.78875 -50.2368
4 42.0902 9.50425 -52.9522
4 43.448 5.431 -54.31
4 43.448 8.1465 -51.5945
4 46.1635 5.431 -51.5945
4 46.1635 8.1465 -54.31
4 44.8058 6.78875 -52.9522
4 44.8058 9.50425 -50.2368
4 47.5213 6.78875 -50.2368
4 47.5213 9.50425 -52.9522
4 48.879 5.431 -54.31
4 48.879 8.1465 -51.5945
4 51.5945 5.431 -51.5945
4 51.5945 8.1465 -54.31
4 50.2368 6.78875 -52.9522
4 50.2368 9.50425 -50.2368
4 52.9522 6.78875 -50.2368
4 52.9522 9.50425 -52.9522
4 0 10.862 -54.31
4 0 13.5775 -51.5945
4 2.7155 10.862 -51.5945
4 2.7155 13.5775 -54.31
4 1.35775 12.2197 -52.9522
4 1.35775 14.9352 -50.2368
4 4.07325 12.2197 -50.2368
4 4.07325 14.9352 -52.9522
4 5.431 10.862 -54.31
4 5.431 13.5775 -51.5945
4 8.1465 10.862 -51.5945
4 8.1465 13.5775 -54.31
4 6.78875 12.2197 -52.9522
4 6.78875 14.9352 -50.2368
4 9.50425 12.2197 -50.2368
4 9.50425 14.9352 -52.9522
4 10.862 10.862 -54.31
4 10.862 13.5775 -51.5945
4 13.5775 10.862 -51.5945
4 13.5775 13.5775 -54.31
4 12.2197 12.2197 -52.9522
4 12.2197 14.9352 -50.2368
4 14.9352 12.2197 -50.2368
4 14.9352 14.9352 -52.9522
4 16.293 10.862 -54.31
4 16.293 13.5775 -51.5945
4 19.0085 10.862 -51.5945
4 19.0085 13.5775 -54.31
4 17.6507 12.2197 -52.9522
4 17.6507 14.9352 -50.2368
4 20.3663 12.2197 -50.2368
4 20.3663 14.9352 -52.9522
4 21.724 10.862 -54.31
4 21.724 13.5775 -51.5945
4 24.4395 10.862 -51.5945
4 24.4395 13.5775 -54.31
4 23.0817 12.2197 -52.9522
4 23.0817 14.9352 -50.2368
4 25.7973 12.2197 -50.2368
4 25.7973 14.9352 -52.9522
4 27.155 10.862 -54.31
4 27.155 13.5775 -51.5945
4 29.8705 10.862 -51.5945
4 29.8705 13.5775 -54.31
4 28.5128 12.2197 -52.9522
4 28.5128 14.9352 -50.2368
4 31.2282 12.2197 -50.2368
4 31.2282 14.9352 -52.9522
4 32.586 10.862 -54.31
4 32.586 13.5775 -51.5945
4 35.3015 10.862 -51.5945
4 35.3015 13.5775 -54.31
4 33.9438 12.2197 -52.9522
4 33.9438 14.9352 -50.2368
4 36.6593 12.2197 -50.2368
4 36.6593 14.9352 -52.9522
4 38.017 10.862 -54.31
4 38.017 13.5775 -51.5945
4 40.7325 10.862 -51.5945
4 40.7325 13.5775 -54.31
4 39.3747 12.2197 -52.9522
4 39.3747 14.9352 -50.2368
4 42.0902 12.2197 -50.2368
4 42.0902 14.9352 -52.9522
4 43.448 10.862 -54.31
4 43.448 13.5775 -51.5945
4 46.1635 10.862 -51.5945
4 46.1635 13.5775 -54.31
4 44.8058 12.2197 -52.9522
4 44.8058 14.9352 -50.2368
4 47.5213 12.2197 -50.2368
4 47.5213 14.9352 -52.9522
4 48.879 10.862 -54.31
4 48.879 13.5775 -51.5945
4 51.5945 10.862 -51.5945
4 51.5945 13.5775 -54.31
4 50.2368 12.2197 -52.9522
4 50.2368 14.9352 -50.2368
4 52.9522 12.2197 -50.2368
4 52.9522 14.9352 -52.9522
4 0 16.293 -54.31
4 0 19.0085 -51.5945
4 2.7155 16.293 -51.5945
4 2.7155 19.0085 -54.31
4 1.35775 17.6507 -52.9522
4 1.35775 20.3663 -50.2368
4 4.07325 17.6507 -50.2368
4 4.07325 20.3663 -52.9522
4 5.431 16.293 -54.31
4 5.431 19.0085 -51.5945
4 8.1465 16.293 -51.5945
4 8.1465 19.0085 -54.31
4 6.78875 17.6507 -52.9522
4 6.78875 20.3663 -50.2368
4 9.50425 17.6507 -50.2368
4 9.50425 20.3663 -52.9522
4 10.862 16.293 -54.31
4 10.862 19.0085 -51.5945
4 13.5775 16.293 -51.5945
4 13.5775 19.0085 -54.31
4 12.2197 17.6507 -52.9522
4 12.2197 20.3663 -50.2368
4 14.9352 17.6507 -50.2368
4 14.9352 20.3663 -52.9522
4 16.293 16.293 -54.31
4 16.293 19.0085 -51.5945
4 19.0085 16.293 -51.5945
4 19.0085 19.0085 -54.31
4 17.6507 17.6507 -52.9522
4 17.6507 20.3663 -50.2368
4 20.3663 17.6507 -50.2368
4 20.3663 20.3663 -52.9522
4 21.724 16.293 -54.31
4 21.724 19.0085 -51.5945
4 24.4395 16.293 -51.5945
4 24.4395 19.0085 -54.31
4 23.0817 17.6507 -52.9522
4 23.0817 20.3663 -50.2368
4 25.7973 17.6507 -50.2368
4 25.7973 20.3663 -52.9522
4 27.155 16.293 -54.31
4 27.155 19.0085 -51.5945
4 29.8705 16.293 -51.5945
4 29.8705 19.0085 -54.31
4 28.5128 17.6507 -52.9522
4 28.5128 20.3663 -50.2368
4 31.2282 17.6507 -50.2368
4 31.2282 20.3663 -52.9522
4 32.586 16.293 -54.31
4 32.586 19.0085 -51.5945
4 35.3015 16.293 -51.5945
4 35.3015 19.0085 -54.31
4 33.9438 17.6507 -52.9522
4 33.9438 20.3663 -50.2368
4 36.6593 17.6507 -50.2368
4 36.6593 20.3663 -52.9522
4 38.017 16.293 -54.31
4 38.017 19.0085 -51.5945
4 40.7325 16.293 -51.5945
4 40.7325 19.0085 -54.31
4 39.3747 17.6507 -52.9522
4 39.3747 20.3663 -50.2368
4 42.0902 17.6507 -50.2368
4 42.0902 20.3663 -52.9522
4 43.448 16.293 -54.31
4 43.448 19.0085 -51.5945
4 46.1635 16.293 -51.5945
4 46.1635 19.0085 -54.31
4 44.8058 17.6507 -52.9522
4 44.8058 20.3663 -50.2368
4 47.5213 17.6507 -50.2368
4 47.5213 20.3663 -52.9522
4 48.879 16.293 -54.31
4 48.879 19.0085 -51.5945
4 51.5945 16.293 -51.5945
4 51.5945 19.0085 -54.31
4 50.2368 17.6507 -52.9522
4 50.2368 20.3663 -50.2368
4 52.9522 17.6507 -50.2368
4 52.9522 20.3663 -52.9522
4 0 21.724 -54.31
4 0 24.4395 -51.5945
4 2.7155 21.724 -51.5945
4 2.7155 24.4395 -54.31
4 1.35775 23.0817 -52.9522
4 1.35775 25.7973 -50.2368
4 4.07325 23.0817 -50.2368
4 4.07325 25.7973 -52.9522
4 5.431 21.724 -54.31
4 5.431 24.4395 -51.5945
4 8.1465 21.724 -51.5945
4 8.1465 24.4395 -54.31
4 6.78875 23.0817 -52.9522
4 6.78875 25.7973 -50.2368
4 9.50425 23.0817 -50.2368
4 9.50425 25.7973 -52.9522
4 10.862 21.724 -54.31
4 10.862 24.4395 -51.5945
4 13.5775 21.724 -51.5945
4 13.5775 24.4395 -54.31
4 12.2197 23.0817 -52.9522
4 12.2197 25.7973 -50.2368
4 14.9352 23.0817 -50.2368
4 14.9352 25.7973 -52.9522
4 16.293 21.724 -54.31
4 16.293 24.4395 -51.5945
4 19.0085 21.724 -51.5945
4 19.0085 24.4395 -54.31
4 17.6507 23.0817 -52.9522
4 17.6507 25.7973 -50.2368
4 20.3663 23.0817 -50.2368
4 20.3663 25.7973 -52.9522
4 21.724 21.724 -54.31
4 21.724 24.4395 -51.5945
4 24.4395 21.724 -51.5945
4 24.4395 24.4395 -54.31
4 23.0817 23.0817 -52.9522
4 23.0817 25.7973 -50.2368
4 25.7973 23.0817 -50.2368
4 25.7973 25.7973 -52.9522
4 27.155 21.724 -54.31
4 27.155 24.4395 -51.5945
4 29.8705 21.724 -51.5945
4 29.8705 24.4395 -54.31
4 28.5128 23.0817 -52.9522
4 28.5128 25.7973 -50.2368
4 31.2282 23.0817 -50.2368
4 31.2282 25.7973 -52.9522
4 32.586 21.724 -54.31
4 32.586 24.4395 -51.5945
4 35.3015 21.724 -51.5945
4 35.3015 24.4395 -54.31
4 33.9438 23.0817 -52.9522
4 33.9438 25.7973 -50.2368
4 36.6593 23.0817 -50.2368
4 36.6593 25.7973 -52.9522
4 38.017 21.724 -54.31
4 38.017 24.4395 -51.5945
4 40.7325 21.724 -51.5945
4 40.7325 24.4395 -54.31
4 39.3747 23.0817 -52.9522
4 39.3747 25.7973 -50.2368
4 42.0902 23.0817 -50.2368
4 42.0902 25.7973 -52.9522
4 43.448 21.724 -54.31
4 43.448 24.4395 -51.5945
4 46.1635 21.724 -51.5945
4 46.1635 24.4395 -54.31
4 44.8058 23.0817 -52.9522
4 44.8058 25.7973 -50.2368
4 47.5213 23.0817 -50.2368
4 47.5213 25.7973 -52.9522
4 48.879 21.724 -54.31
4 48.879 24.4395 -51.5945
4 51.5945 21.724 -51.5945
4 51.5945 24.4395 -54.31
4 50.2368 23.0817 -52.9522
4 50.2368 25.7973 -50.2368
4 52.9522 23.0817 -50.2368
4 52.9522 25.7973 -52.9522
4 0 27.155 -54.31
4 0 29.8705 -51.5945
4 2.7155 27.155 -51.5945
4 2.7155 29.8705 -54.31
4 1.35775 28.5128 -52.9522
4 1.35775 31.2282 -50.2368
4 4.07325 28.5128 -50.2368
4 4.07325 31.2282 -52.9522
4 5.431 27.155 -54.31
4 5.431 29.8705 -51.5945
4 8.1465 27.155 -51.5945
4 8.1465 29.8705 -54.31
4 6.78875 28.5128 -52.9522
4 6.78875 31.2282 -50.2368
4 9.50425 28.5128 -50.2368
4 9.50425 31.2282 -52.9522
4 10.862 27.155 -54.31
4 10.862 29.8705 -51.5945
4 13.5775 27.155 -51.5945
4 13.5775 29.8705 -54.31
4 12.2197 28.5128 -52.9522
4 12.2197 31.2282 -50.2368
4 14.9352 28.5128 -50.2368
4 14.9352 31.2282 -52.9522
4 16.293 27.155 -54.31
4 16.293 29.8705 -51.5945
4 19.0085 27.155 -51.5945
4 19.0085 29.8705 -54.31
4 17.6507 28.5128 -52.9522
4 17.6507 31.2282 -50.2368
4 20.3663 28.5128 -50.2368
4 20.3663 31.2282 -52.9522
4 21.724 27.155 -54.31
4 21.724 29.8705 -51.5945
4 24.4395 27.155 -51.5945
4 24.4395 29.8705 -54.31
4 23.0817 28.5128 -52.9522
4 23.0817 31.2282 -50.2368
4 25.7973 28.5128 -50.2368
4 25.7973 31.2282 -52.9522
4 27.155 27.155 -54.31
4 27.155 29.8705 -51.5945
4 29.8705 27.155 -51.5945
4 29.8705 29.8705 -54.31
4 28.5128 28.5128 -52.9522
4 28.5128 31.2282 -50.2368
4 31.2282 28.5128 -50.2368
4 31.2282 31.2282 -52.9522
4 32.586 27.155 -54.31
4 32.586 29.8705 -51.5945
4 35.3015 27.155 -51.5945
4 35.3015 29.8705 -54.31
4 33.9438 28.5128 -52.9522
4 33.9438 31.2282 -50.2368
4 36.6593 28.5128 -50.2368
4 36.6593 31.2282 -52.9522
4 38.017 27.155 -54.31
4 38.017 29.8705 -51.5945
4 40.7325 27.155 -51.5945
4 40.7325 29.8705 -54.31
4 39.3747 28.5128 -52.9522
4 39.3747 31.2282 -50.2368
4 42.0902 28.5128 -50.2368
4 42.0902 31.2282 -52.9522
4 43.448 27.155 -54.31
4 43.448 29.8705 -51.5945
4 46.1635 27.155 -51.5945
4 46.1635 29.8705 -54.31
4 44.8058 28.5128 -52.9522
4 44.8058 31.2282 -50.2368
4 47.5213 28.5128 -50.2368
4 47.5213 31.2282 -52.9522
4 48.879 27.155 -54.31
4 48.879 29.8705 -51.5945
4 51.5945 27.155 -51.5945
4 51.5945 29.8705 -54.31
4 50.2368 28.5128 -52.9522
4 50.2368 31.2282 -50.2368
4 52.9522 28.5128 -50.2368
4 52.9522 31.2282 -52.9522
4 0 32.586 -54.31
4 0 35.3015 -51.5945
4 2.7155 32.586 -51.5945
4 2.7155 35.3015 -54.31
4 1.35775 33.9438 -52.9522
4 1.35775 36.6593 -50.2368
4 4.07325 33.9438 -50.2368
4 4.07325 36.6593 -52.9522
4 5.431 32.586 -54.31
4 5.431 35.3015 -51.5945
4 8.1465 32.586 -51.5945
4 8.1465 35.3015 -54.31
4 6.78875 33.9438 -52.9522
4 6.78875 36.6593 -50.2368
4 9.50425 33.9438 -50.2368
4 9.50425 36.6593 -52.9522
4 10.862 32.586 -54.31
4 10.862 35.3015 -51.5945
4 13.5775 32.586 -51.5945
4 13.5775 35.3015 -54.31
4 12.2197 33.9438 -52.9522
4 12.2197 36.6593 -50.2368
4 14.9352 33.9438 -50.2368
4 14.9352 36.6593 -52.9522
4 16.293 32.586 -54.31
4 16.293 35.3015 -51.5945
4 19.0085 32.586 -51.5945
4 19.0085 35.3015 -54.31
4 17.6507 33.9438 -52.9522
4 17.6507 36.6593 -50.2368
4 20.3663 33.9438 -50.2368
4 20.3663 36.6593 -52.9522
4 21.724 32.586 -54.31
4 21.724 35.3015 -51.5945
4 24.4395 32.586 -51.5945
4 24.4395 35.3015 -54.31
4 23.0817 33.9438 -52.9522
4 23.0817 36.6593 -50.2368
4 25.7973 33.9438 -50.2368
4 25.7973 36.6593 -52.9522
4 27.155 32.586 -54.31
4 27.155 35.3015 -51.5945
4 29.8705 32.586 -51.5945
4 29.8705 35.3015 -54.31
4 28.5128 33.9438 -52.9522
4 28.5128 36.6593 -50.2368
4 31.2282 33.9438 -50.2368
4 31.2282 36.6593 -52.9522
4 32.586 32.586 -54.31
4 32.586 35.3015 -51.5945
4 35.3015 32.586 -51.5945
4 35.3015 35.3015 -54.31
4 33.9438 33.9438 -52.9522
4 33.9438 36.6593 -50.2368
4 36.6593 33.9438 -50.2368
4 36.6593 36.6593 -52.9522
4 38.017 32.586 -54.31
4 38.017 35.3015 -51.5945
4 40.7325 32.586 -51.5945
4 40.7325 35.3015 -54.31
4 39.3747 33.9438 -52.9522
4 39.3747 36.6593 -50.2368
4 42.0902 33.9438 -50.2368
4 42.0902 36.6593 -52.9522
4 43.448 32.586 -54.31
4 43.448 35.3015 -51.5945
4 46.1635 32.586 -51.5945
4 46.1635 35.3015 -54.31
4 44.8058 33.9438 -52.9522
4 44.8058 36.6593 -50.2368
4 47.5213 33.9438 -50.2368
4 47.5213 36.6593 -52.9522
4 48.879 32.586 -54.31
4 48.879 35.3015 -51.5945
4 51.5945 32.586 -51.5945
4 51.5945 35.3015 -54.31
4 50.2368 33.9438 -52.9522
4 50.2368 36.6593 -50.2368
4 52.9522 33.9438 -50.2368
4 52.9522 36.6593 -52.9522
4 0 38.017 -54.31
4 0 40.7325 -51.5945
4 2.7155 38.017 -51.5945
4 2.7155 40.7325 -54.31
4 1.35775 39.3747 -52.9522
4 1.35775 42.0902 -50.2368
4 4.07325 39.3747 -50.2368
4 4.07325 42.0902 -52.9522
4 5.431 38.017 -54.31
4 5.431 40.7325 -51.5945
4 8.1465 38.017 -51.5945
4 8.1465 40.7325 -54.31
4 6.78875 39.3747 -52.9522
4 6.78875 42.0902 -50.2368
4 9.50425 39.3747 -50.2368
4 9.50425 42.0902 -52.9522
4 10.862 38.017 -54.31
4 10.862 40.7325 -51.5945
4 13.5775 38.017 -51.5945
4 13.5775 40.7325 -54.31
4 12.2197 39.3747 -52.9522
4 12.2197 42.0902 -50.2368
4 14.9352 39.3747 -50.2368
4 14.9352 42.0902 -52.9522
4 16.293 38.017 -54.31
4 16.293 40.7325 -51.5945
4 19.0085 38.017 -51.5945
4 19.0085 40.7325 -54.31
4 17.6507 39.3747 -52.9522
4 17.6507 42.0902 -50.2368
4 20.3663 39.3747 -50.2368
4 20.3663 42.0902 -52.9522
4 21.724 38.017 -54.31
4 21.724 40.7325 -51.5945
4 24.4395 38.017 -51.5945
4 24.4395 40.7325 -54.31
4 23.0817 39.3747 -52.9522
4 23.0817 42.0902 -50.2368
4 25.7973 39.3747 -50.2368
4 25.7973 42.0902 -52.9522
4 27.155 38.017 -54.31
4 27.155 40.7325 -51.5945
4 29.8705 38.017 -51.5945
4 29.8705 40.7325 -54.31
4 28.5128 39.3747 -52.9522
4 28.5128 42.0902 -50.2368
4 31.2282 39.3747 -50.2368
4 31.2282 42.0902 -52.9522
4 32.586 38.017 -54.31
4 32.586 40.7325 -51.5945
4 35.3015 38.017 -51.5945
4 35.3015 40.7325 -54.31
4 33.9438 39.3747 -52.9522
4 33.9438 42.0902 -50.2368
4 36.6593 39.3747 -50.2368
4 36.6593 42.0902 -52.9522
4 38.017 38.017 -54.31
4 38.017 40.7325 -51.5945
4 40.7325 38.017 -51.5945
4 40.7325 40.7325 -54.31
4 39.3747 39.3747 -52.9522
4 39.3747 42.0902 -50.2368
4 42.0902 39.3747 -50.2368
4 42.0902 42.0902 -52.9522
4 43.448 38.017 -54.31
4 43.448 40.7325 -51.5945
4 46.1635 38.017 -51.5945
4 46.1635 40.7325 -54.31
4 44.8058 39.3747 -52.9522
4 44.8058 42.0902 -50.2368
4 47.5213 39.3747 -50.2368
4 47.5213 42.0902 -52.9522
4 48.879 38.017 -54.31
4 48.879 40.7325 -51.5945
4 51.5945 38.017 -51.5945
4 51.5945 40.7325 -54.31
4 50.2368 39.3747 -52.9522
4 50.2368 42.0902 -50.2368
4 52.9522 39.3747 -50.2368
4 52.9522 42.0902 -52.9522
4 0 43.448 -54.31
4 0 46.1635 -51.5945
4 2.7155 43.448 -51.5945
4 2.7155 46.1635 -54.31
4 1.35775 44.8058 -52.9522
4 1.35775 47.5213 -50.2368
4 4.07325 44.8058 -50.2368
4 4.07325 47.5213 -52.9522
4 5.431 43.448 -54.31
4 5.431 46.1635 -51.5945
4 8.1465 43.448 -51.5945
4 8.1465 46.1635 -54.31
4 6.78875 44.8058 -52.9522
4 6.78875 47.5213 -50.2368
4 9.50425 44.8058 -50.2368
4 9.50425 47.5213 -52.9522
4 10.862 43.448 -54.31
4 10.862 46.1635 -51.5945
4 13.5775 43.448 -51.5945
4 13.5775 46.1635 -54.31
4 12.2197 44.8058 -52.9522
4 12.2197 47.5213 -50.2368
4 14.9352 44.8058 -50.2368
4 14.9352 47.5213 -52.9522
4 16.293 43.448 -54.31
4 16.293 46.1635 -51.5945
4 19.0085 43.448 -51.5945
4 19.0085 46.1635 -54.31
4 17.6507 44.8058 -52.9522
4 17.6507 47.5213 -50.2368
4 20.3663 44.8058 -50.2368
4 20.3663 47.5213 -52.9522
4 21.724 43.448 -54.31
4 21.724 46.1635 -51.5945
4 24.4395 43.448 -51.5945
4 24.4395 46.1635 -54.31
4 23.0817 44.8058 -52.9522
4 23.0817 47.5213 -50.2368
4 25.7973 44.8058 -50.2368
4 25.7973 47.5213 -52.9522
4 27.155 43.448 -54.31
4 27.155 46.1635 -51.5945
4 29.8705 43.448 -51.5945
4 29.8705 46.1635 -54.31
4 28.5128 44.8058 -52.9522
4 28.5128 47.5213 -50.2368
4 31.2282 44.8058 -50.2368
4 31.2282 47.5213 -52.9522
4 32.586 43.448 -54.31
4 32.586 46.1635 -51.5945
4 35.3015 43.448 -51.5945
4 35.3015 46.1635 -54.31
4 33.9438 44.8058 -52.9522
4 33.9438 47.5213 -50.2368
4 36.6593 44.8058 -50.2368
4 36.6593 47.5213 -52.9522
4 38.017 43.448 -54.31
4 38.017 46.1635 -51.5945
4 40.7325 43.448 -51.5945
4 40.7325 46.1635 -54.31
4 39.3747 44.8058 -52.9522
4 39.3747 47.5213 -50.2368
4 42.0902 44.8058 -50.2368
4 42.0902 47.5213 -52.9522
4 43.448 43.448 -54.31
4 43.448 46.1635 -51.5945
4 46.1635 43.448 -51.5945
4 46.1635 46.1635 -54.31
4 44.8058 44.8058 -52.9522
4 44.8058 47.5213 -50.2368
4 47.5213 44.8058 -50.2368
4 47.5213 47.5213 -52.9522
4 48.879 43.448 -54.31
4 48.879 46.1635 -51.5945
4 51.5945 43.448 -51.5945
4 51.5945 46.1635 -54.31
4 50.2368 44.8058 -52.9522
4 50.2368 47.5213 -50.2368
4 52.9522 44.8058 -50.2368
4 52.9522 47.5213 -52.9522
4 0 48.879 -54.31
4 0 51.5945 -51.5945
4 2.7155 48.879 -51.5945
4 2.7155 51.5945 -54.31
4 1.35775 50.2368 -52.9522
4 1.35775 52.9522 -50.2368
4 4.07325 50.2368 -50.2368
4 4.07325 52.9522 -52.9522
4 5.431 48.879 -54.31
4 5.431 51.5945 -51.5945
4 8.1465 48.879 -51.5945
4 8.1465 51.5945 -54.31
4 6.78875 50.2368 -52.9522
4 6.78875 52.9522 -50.2368
4 9.50425 50.2368 -50.2368
4 9.50425 52.9522 -52.9522
4 10.862 48.879 -54.31
4 10.862 51.5945 -51.5945
4 13.5775 48.879 -51.5945
4 13.5775 51.5945 -54.31
4 12.2197 50.2368 -52.9522
4 12.2197 52.9522 -50.2368
4 14.9352 50.2368 -50.2368
4 14.9352 52.9522 -52.9522
4 16.293 48.879 -54.31
4 16.293 51.5945 -51.5945
4 19.0085 48.879 -51.5945
4 19.0085 51.5945 -54.31
4 17.6507 50.2368 -52.9522
4 17.6507 52.9522 -50.2368
4 20.3663 50.2368 -50.2368
4 20.3663 52.9522 -52.9522
4 21.724 48.879 -54.31
4 21.724 51.5945 -51.5945
4 24.4395 48.879 -51.5945
4 24.4395 51.5945 -54.31
4 23.0817 50.2368 -52.9522
4 23.0817 52.9522 -50.2368
4 25.7973 50.2368 -50.2368
4 25.7973 52.9522 -52.9522
4 27.155 48.879 -54.31
4 27.155 51.5945 -51.5945
4 29.8705 48.879 -51.5945
4 29.8705 51.5945 -54.31
4 28.5128 50.2368 -52.9522
4 28.5128 52.9522 -50.2368
4 31.2282 50.2368 -50.2368
4 31.2282 52.9522 -52.9522
4 32.586 48.879 -54.31
4 32.586 51.5945 -51.5945
4 35.3015 48.879 -51.5945
4 35.3015 51.5945 -54.31
4 33.9438 50.2368 -52.9522
4 33.9438 52.9522 -50.2368
4 36.6593 50.2368 -50.2368
4 36.6593 52.9522 -52.9522
4 38.017 48.879 -54.31
4 38.017 51.5945 -51.5945
4 40.7325 48.879 -51.5945
4 40.7325 51.5945 -54.31
4 39.3747 50.2368 -52.9522
4 39.3747 52.9522 -50.2368
4 42.0902 50.2368 -50.2368
4 42.0902 52.9522 -52.9522
4 43.448 48.879 -54.31
4 43.448 51.5945 -51.5945
4 46.1635 48.879 -51.5945
4 46.1635 51.5945 -54.31
4 44.8058 50.2368 -52.9522
4 44.8058 52.9522 -50.2368
4 47.5213 50.2368 -50.2368
4 47.5213 52.9522 -52.9522
4 48.879 48.879 -54.31
4 48.879 51.5945 -51.5945
4 51.5945 48.879 -51.5945
4 51.5945 51.5945 -54.31
4 50.2368 50.2368 -52.9522
4 50.2368 52.9522 -50.2368
4 52.9522 50.2368 -50.2368
4 52.9522 52.9522 -52.9522
4 0 0 -48.879
3 2.56758 2.60619 -35.6641
4 2.7155 2.7155 -48.879
4 1.35775 1.35775 -47.5213
3 1.05734 6.79394 -34.4835
3 3.8566 3.97896 -34.4133
4 4.07325 4.07325 -47.5213
4 5.431 0 -48.879
3 5.34475 5.37208 -35.556
3 8.08112 2.58566 -35.5969
4 8.1465 2.7155 -48.879
4 6.78875 1.35775 -47.5213
3 6.67172 6.75549 -34.1985
3 9.41925 4.05142 -34.3579
4 9.50425 4.07325 -47.5213
4 10.862 0 -48.879
3 10.8658 5.44978 -35.6055
3 13.5286 2.71573 -35.6216
4 13.5775 2.7155 -48.879
4 12.2197 1.35775 -47.5213
3 12.2648 6.7046 -34.2364
3 14.8807 3.99823 -34.2403
4 14.9352 4.07325 -47.5213
4 16.293 0 -48.879
3 16.2093 5.36208 -35.6211
1 18.9528 2.61451 -35.5271
4 19.0085 2.7155 -48.879
4 17.6507 1.35775 -47.5213
1 17.5771 6.6379 -34.2369
1 20.3008 3.96894 -34.1704
4 20.3663 4.07325 -47.5213
4 21.724 0 -48.879
1 21.6914 5.3734 -35.5278
1 24.3942 2.66814 -35.6697
4 24.4395 2.7155 -48.879
4 23.0817 1.35775 -47.5213
1 23.0496 6.76134 -34.1994
1 25.6544 4.04122 -34.2722
4 25.7973 4.07325 -47.5213
4 27.155 0 -48.879
1 27.1863 5.33394 -35.5858
1 29.8935 2.64765 -35.5892
4 29.8705 2.7155 -48.879
4 28.5128 1.35775 -47.5213
1 28.5645 6.68135 -34.2794
1 31.3491 4.01257 -34.197
4 31.2282 4.07325 -47.5213
4 32.586 0 -48.879
1 32.609 5.50506 -35.6063
1 35.3187 2.70531 -35.6714
4 35.3015 2.7155 -48.879
4 33.9438 1.35775 -47.5213
1 33.8871 6.72635 -34.1938
1 36.6195 3.98485 -34.3008
4 36.6593 4.07325 -47.5213
4 38.017 0 -48.879
1 37.9807 5.369 -35.5199
1 40.7929 2.63741 -35.4833
4 40.7325 2.7155 -48.879
4 39.3747 1.35775 -47.5213
1 39.379 6.69309 -34.1778
1 42.1065 3.99574 -34.0943
4 42.0902 4.07325 -47.5213
4 43.448 0 -48.879
1 43.3902 5.345 -35.57
1 46.2341 2.75747 -35.5665
4 46.1635 2.7155 -48.879
4 44.8058 1.35775 -47.5213
1 44.7323 6.75485 -34.241
1 47.5552 4.02319 -34.217
4 47.5213 4.07325 -47.5213
4 48.879 0 -48.879
1 48.839 5.37556 -35.6259
1 51.6241 2.73256 -35.5705
4 51.5945 2.7155 -48.879
4 50.2368 1.35775 -47.5213
1 50.2419 6.61404 -34.2668
1 53.0703 4.1121 -34.1908
4 52.9522 4.07325 -47.5213
4 0 5.431 -48.879
3 2.62974 8.07781 -35.5897
4 2.7155 8.1465 -48.879
4 1.35775 6.78875 -47.5213
3 0.992486 12.1461 -34.5426
3 3.95455 9.3317 -34.3299
4 4.07325 9.50425 -47.5213
4 5.431 5.431 -48.879
3 5.30042 10.7005 -35.5755
3 8.07242 8.05761 -35.5841
4 8.1465 8.1465 -48.879
4 6.78875 6.78875 -47.5213
3 6.56842 12.1517 -34.3192
3 9.47869 9.47287 -34.2761
4 9.50425 9.50425 -47.5213
4 10.862 5.431 -48.879
3 10.8739 10.7682 -35.6341
3 13.6038 8.17111 -35.5886
4 13.5775 8.1465 -48.879
4 12.2197 6.78875 -47.5213
3 12.3577 12.0713 -34.2652
3 14.9945 9.50472 -34.2555
4 14.9352 9.50425 -47.5213
4 16.293 5.431 -48.879
3 16.3612 10.8259 -35.5466
1 18.9299 8.0135 -35.5715
4 19.0085 8.1465 -48.879
4 17.6507 6.78875 -47.5213
1 17.7069 12.2141 -34.2629
1 20.3131 9.38971 -34.3373
4 20.3663 9.50425 -47.5213
4 21.724 5.431 -48.879
1 21.6734 10.8019 -35.6208
1 24.3524 8.06453 -35.5717
4 24.4395 8.1465 -48.879
4 23.0817 6.78875 -47.5213
1 23.0004 12.1844 -34.1935
1 25.7331 9.39917 -34.2772
4 25.7973 9.50425 -47.5213
4 27.155 5.431 -48.879
1 27.126 10.8087 -35.5953
1 29.8952 8.13118 -35.5887
4 29.8705 8.1465 -48.879
4 28.5128 6.78875 -47.5213
1 28.4937 12.1709 -34.2774
1 31.193 9.46652 -34.2785
4 31.2282 9.50425 -47.5213
4 32.586 5.431 -48.879
1 32.5389 10.854 -35.6349
1 35.2713 8.12219 -35.5741
4 35.3015 8.1465 -48.879
4 33.9438 6.78875 -47.5213
1 33.9948 12.1669 -34.3187
1 36.6836 9.51445 -34.3376
4 36.6593 9.50425 -47.5213
4 38.017 5.431 -48.879
1 37.9957 10.8753 -35.6282
1 40.7095 8.08337 -35.5578
4 40.7325 8.1465 -48.879
4 39.3747 6.78875 -47.5213
1 39.3609 12.127 -34.2163
1 42.072 9.44529 -34.1773
4 42.0902 9.50425 -47.5213
4 43.448 5.431 -48.879
1 43.3912 10.7796 -35.6018
1 46.1909 8.11183 -35.4519
4 46.1635 8.1465 -48.879
4 44.8058 6.78875 -47.5213
1 44.8904 12.0896 -34.267
1 47.6679 9.40688 -34.1582
4 47.5213 9.50425 -47.5213
4 48.879 5.431 -48.879
1 48.8899 10.8742 -35.5637
1 51.6232 8.08183 -35.6045
4 51.5945 8.1465 -48.879
4 50.2368 6.78875 -47.5213
1 50.3403 12.1384 -34.2959
1 53.1349 9.29669 -34.2446
4 52.9522 9.50425 -47.5213
4 0 10.862 -48.879
3 2.5752 13.4909 -35.5612
4 2.7155 13.5775 -48.879
4 1.35775 12.2197 -47.5213
3 1.09095 18.0104 -34.0439
3 3.83422 14.9261 -34.3007
4 4.07325 14.9352 -47.5213
4 5.431 10.862 -48.879
3 5.27739 16.1577 -35.6132
3 8.03026 13.525 -35.5818
4 8.1465 13.5775 -48.879
4 6.78875 12.2197 -47.5213
3 6.60773 17.5821 -34.3686
3 9.3915 14.8417 -34.2297
4 9.50425 14.9352 -47.5213
4 10.862 10.862 -48.879
3 10.7327 16.1974 -35.643
3 13.557 13.5946 -35.5337
4 13.5775 13.5775 -48.879
4 12.2197 12.2197 -47.5213
3 12.164 17.5477 -34.2473
3 14.966 14.8722 -34.186
4 14.9352 14.9352 -47.5213
4 16.293 10.862 -48.879
3 16.2945 16.3152 -35.5172
1 19.0338 13.6132 -35.5373
4 19.0085 13.5775 -48.879
4 17.6507 12.2197 -47.5213
1 17.5848 17.6628 -34.1672
1 20.3342 14.9212 -34.2848
4 20.3663 14.9352 -47.5213
4 21.724 10.862 -48.879
1 21.7728 16.3016 -35.5763
1 24.3851 13.5943 -35.4825
4 24.4395 13.5775 -48.879
4 23.0817 12.2197 -47.5213
1 23.0946 17.7029 -34.1896
1 25.78 14.9037 -34.2169
4 25.7973 14.9352 -47.5213
4 27.155 10.862 -48.879
1 27.1292 16.2692 -35.5992
1 29.8592 13.6298 -35.5605
4 29.8705 13.5775 -48.879
4 28.5128 12.2197 -47.5213
1 28.5055 17.6567 -34.3269
1 31.2257 14.973 -34.2306
4 31.2282 14.9352 -47.5213
4 32.586 10.862 -48.879
1 32.5891 16.3159 -35.6691
1 35.3219 13.6034 -35.6168
4 35.3015 13.5775 -48.879
4 33.9438 12.2197 -47.5213
1 33.8747 17.7537 -34.2141
1 36.6926 14.9092 -34.2567
4 36.6593 14.9352 -47.5213
4 38.017 10.862 -48.879
1 38.0103 16.3263 -35.6528
1 40.648 13.5489 -35.5739
4 40.7325 13.5775 -48.879
4 39.3747 12.2197 -47.5213
1 39.2782 17.636 -34.3082
1 42.0815 14.8148 -34.2803
4 42.0902 14.9352 -47.5213
4 43.448 10.862 -48.879
1 43.3984 16.2753 -35.5731
1 46.139 13.5964 -35.5845
4 46.1635 13.5775 -48.879
4 44.8058 12.2197 -47.5213
1 44.812 17.5789 -34.2704
1 47.5506 14.8457 -34.1869
4 47.5213 14.9352 -47.5213
4 48.879 10.862 -48.879
1 48.886 16.223 -35.5301
1 51.6828 13.6449 -35.5046
4 51.5945 13.5775 -48.879
4 50.2368 12.2197 -47.5213
1 50.334 17.6001 -34.3294
1 53.089 14.988 -34.224
4 52.9522 14.9352 -47.5213
4 0 16.293 -48.879
3 2.50949 18.8247 -35.6249
4 2.7155 19.0085 -48.879
4 1.35775 17.6507 -47.5213
3 1.0688 22.26 -35.0788
3 3.89134 20.279 -34.3653
4 4.07325 20.3663 -47.5213
4 5.431 16.293 -48.879
3 5.37399 21.5962 -35.5604
3 8.01799 18.8587 -35.7051
4 8.1465 19.0085 -48.879
4 6.78875 17.6507 -47.5213
3 6.67407 22.996 -34.2956
3 9.31469 20.2873 -34.3995
4 9.50425 20.3663 -47.5213
4 10.862 16.293 -48.879
3 10.7283 21.6106 -35.7062
3 13.4975 18.9342 -35.6203
4 13.5775 19.0085 -48.879
4 12.2197 17.6507 -47.5213
3 12.0476 23.0166 -34.343
3 14.8287 20.2555 -34.2968
4 14.9352 20.3663 -47.5213
4 16.293 16.293 -48.879
3 16.2454 21.6772 -35.5804
1 18.9282 19.0005 -35.5684
4 19.0085 19.0085 -48.879
4 17.6507 17.6507 -47.5213
1 17.5735 23.0873 -34.1896
1 20.2046 20.3403 -34.2052
4 20.3663 20.3663 -47.5213
4 21.724 16.293 -48.879
1 21.6104 21.6891 -35.6018
1 24.4738 19.0342 -35.5412
4 24.4395 19.0085 -48.879
4 23.0817 17.6507 -47.5213
1 23.0016 23.0802 -34.3855
1 25.7816 20.4275 -34.2789
4 25.7973 20.3663 -47.5213
4 27.155 16.293 -48.879
1 27.1931 21.721 -35.6217
1 29.8709 18.9993 -35.6142
4 29.8705 19.0085 -48.879
4 28.5128 17.6507 -47.5213
1 28.5138 23.0256 -34.1886
1 31.1449 20.3278 -34.1924
4 31.2282 20.3663 -47.5213
4 32.586 16.293 -48.879
1 32.5504 21.6385 -35.5883
1 35.2878 18.9462 -35.6592
4 35.3015 19.0085 -48.879
4 33.9438 17.6507 -47.5213
1 33.796 23.0417 -34.2425
1 36.5848 20.3508 -34.2688
4 36.6593 20.3663 -47.5213
4 38.017 16.293 -48.879
1 38.0178 21.6978 -35.6433
1 40.7374 18.9939 -35.6411
4 40.7325 19.0085 -48.879
4 39.3747 17.6507 -47.5213
1 39.3241 23.0963 -34.2605
1 42.1157 20.4222 -34.2978
4 42.0902 20.3663 -47.5213
4 43.448 16.293 -48.879
1 43.449 21.7171 -35.6022
1 46.1903 18.9698 -35.6386
4 46.1635 19.0085 -48.879
4 44.8058 17.6507 -47.5213
1 44.8847 23.0148 -34.173
1 47.6294 20.2443 -34.3089
4 47.5213 20.3663 -47.5213
4 48.879 16.293 -48.879
1 48.8255 21.5994 -35.6785
1 51.5882 19.0886 -35.6449
4 51.5945 19.0085 -48.879
4 50.2368 17.6507 -47.5213
1 50.261 23.0028 -34.4764
1 53.0889 20.4477 -34.5581
4 52.9522 20.3663 -47.5213
4 0 21.724 -48.879
3 2.41626 24.1354 -35.7196
4 2.7155 24.4395 -48.879
4 1.35775 23.0817 -47.5213
3 0.998882 28.7362 -34.2625
3 3.80852 25.5881 -34.4943
4 4.07325 25.7973 -47.5213
4 5.431 21.724 -48.879
3 5.26205 27.017 -35.5955
3 8.16656 24.3906 -35.6732
4 8.1465 24.4395 -48.879
4 6.78875 23.0817 -47.5213
3 6.63699 28.3658 -34.247
3 9.36227 25.8169 -34.2442
4 9.50425 25.7973 -47.5213
4 10.862 21.724 -48.879
3 10.8189 27.0927 -35.5257
3 13.6208 24.3748 -35.5718
4 13.5775 24.4395 -48.879
4 12.2197 23.0817 -47.5213
3 12.1565 28.4649 -34.2383
3 14.8867 25.7313 -34.1801
4 14.9352 25.7973 -47.5213
4 16.293 21.724 -48.879
3 16.2434 27.088 -35.5412
1 18.9597 24.4292 -35.6105
4 19.0085 24.4395 -48.879
4 17.6507 23.0817 -47.5213
1 17.6028 28.4575 -34.2043
1 20.3891 25.7356 -34.2188
4 20.3663 25.7973 -47.5213
4 21.724 21.724 -48.879
1 21.7764 27.1195 -35.5702
1 24.3915 24.4665 -35.6098
4 24.4395 24.4395 -48.879
4 23.0817 23.0817 -47.5213
1 23.0806 28.4928 -34.2288
1 25.8135 25.7425 -34.2055
4 25.7973 25.7973 -47.5213
4 27.155 21.724 -48.879
1 27.1027 27.0916 -35.6244
1 29.8226 24.4696 -35.5441
4 29.8705 24.4395 -48.879
4 28.5128 23.0817 -47.5213
1 28.4449 28.5261 -34.221
1 31.1409 25.7578 -34.2222
4 31.2282 25.7973 -47.5213
4 32.586 21.724 -48.879
1 32.4527 27.0826 -35.5908