13898
 Atoms. Timestep: 130000
4 0 0 -54.31
4 0 2.7155 -51.5945
4 2.7155 0 -51.5945
4 2.7155 2.7155 -54.31
4 1.35775 1.35775 -52.9522
4 1.35775 4.07325 -50.2368
4 4.07325 1.35775 -50.2368
4 4.07325 4.07325 -52.9522
4 5.431 0 -54.31
4 5.431 2.7155 -51.5945
4 8.1465 0 -51.5945
4 8.1465 2.7155 -54.31
4 6.78875 1.35775 -52.9522
4 6.78875 4.07325 -50.2368
4 9.50425 1.35775 -50.2368
4 9.50425 4.07325 -52.9522
4 10.862 0 -54.31
4 10.862 2.7155 -51.5945
4 13.5775 0 -51.5945
4 13.5775 2.7155 -54.31
4 12.2197 1.35775 -52.9522
4 12.2197 4.07325 -50.2368
4 14.9352 1.35775 -50.2368
4 14.9352 4.07325 -52.9522
4 16.293 0 -54.31
4 16.293 2.7155 -51.5945
4 19.0085 0 -51.5945
4 19.0085 2.7155 -54.31
4 17.6507 1.35775 -52.9522
4 17.6507 4.07325 -50.2368
4 20.3663 1.35775 -50.2368
4 20.3663 4.07325 -52.9522
4 21.724 0 -54.31
4 21.724 2.7155 -51.5945
4 24.4395 0 -51.5945
4 24.4395 2.7155 -54.31
4 23.0817 1.35775 -52.9522
4 23.0817 4.07325 -50.2368
4 25.7973 1.35775 -50.2368
4 25.7973 4.07325 -52.9522
4 27.155 0 -54.31
4 27.155 2.7155 -51.5945
4 29.8705 0 -51.5945
4 29.8705 2.7155 -54.31
4 28.5128 1.35775 -52.9522
4 28.5128 4.07325 -50.2368
4 31.2282 1.35775 -50.2368
4 31.2282 4.07325 -52.9522
4 32.586 0 -54.31
4 32.586 2.7155 -51.5945
4 35.3015 0 -51.5945
4 35.3015 2.7155 -54.31
4 33.9438 1.35775 -52.9522
4 33.9438 4.07325 -50.2368
4 36.6593 1.35775 -50.2368
4 36.6593 4.07325 -52.9522
4 38.017 0 -54.31
4 38.017 2.7155 -51.5945
4 40.7325 0 -51.5945
4 40.7325 2.7155 -54.31
4 39.3747 1.35775 -52.9522
4 39.3747 4.07325 -50.2368
4 42.0902 1.35775 -50.2368
4 42.0902 4.07325 -52.9522
4 43.448 0 -54.31
4 43.448 2.7155 -51.5945
4 46.1635 0 -51.5945
4 46.1635 2.7155 -54.31
4 44.8058 1.35775 -52.9522
4 44.8058 4.07325 -50.2368
4 47.5213 1.35775 -50.2368
4 47.5213 4.07325 -52.9522
4 48.879 0 -54.31
4 48.879 2.7155 -51.5945
4 51.5945 0 -51.5945
4 51.5945 2.7155 -54.31
4 50.2368 1.35775 -52.9522
4 50.2368 4.07325 -50.2368
4 52.9522 1.35775 -50.2368
4 52.9522 4.07325 -52.9522
4 0 5.431 -54.31
4 0 8.1465 -51.5945
4 2.7155 5.431 -51.5945
4 2.7155 8.1465 -54.31
4 1.35775 6.78875 -52.9522
4 1.35775 9.50425 -50.2368
4 4.07325 6.78875 -50.2368
4 4.07325 9.50425 -52.9522
4 5.431 5.431 -54.31
4 5.431 8.1465 -51.5945
4 8.1465 5.431 -51.5945
4 8.1465 8.1465 -54.31
4 6.78875 6.78875 -52.9522
4 6.78875 9.50425 -50.2368
4 9.50425 6.78875 -50.2368
4 9.50425 9.50425 -52.9522
4 10.862 5.431 -54.31
4 10.862 8.1465 -51.5945
4 13.5775 5.431 -51.5945
4 13.5775 8.1465 -54.31
4 12.2197 6.78875 -52.9522
4 12.2197 9.50425 -50.2368
4 14.9352 6.78875 -50.2368
4 14.9352 9.50425 -52.9522
4 16.293 5.431 -54.31
4 16.293 8.1465 -51.5945
4 19.0085 5.431 -51.5945
4 19.0085 8.1465 -54.31
4 17.6507 6.78875 -52.9522
4 17.6507 9.50425 -50.2368
4 20.3663 6.78875 -50.2368
4 20.3663 9.50425 -52.9522
4 21.724 5.431 -54.31
4 21.724 8.1465 -51.5945
4 24.4395 5.431 -51.5945
4 24.4395 8.1465 -54.31
4 23.0817 6.78875 -52.9522
4 23.0817 9.50425 -50.2368
4 25.7973 6.78875 -50.2368
4 25.7973 9.50425 -52.9522
4 27.155 5.431 -54.31
4 27.155 8.1465 -51.5945
4 29.8705 5.431 -51.5945
4 29.8705 8.1465 -54.31
4 28.5128 6.78875 -52.9522
4 28.5128 9.50425 -50.2368
4 31.2282 6.78875 -50.2368
4 31.2282 9.50425 -52.9522
4 32.586 5.431 -54.31
4 32.586 8.1465 -51.5945
4 35.3015 5.431 -51.5945
4 35.3015 8.1465 -54.31
4 33.9438 6.78875 -52.9522
4 33.9438 9.50425 -50.2368
4 36.6593 6.78875 -50.2368
4 36.6593 9.50425 -52.9522
4 38.017 5.431 -54.31
4 38.017 8.1465 -51.5945
4 40.7325 5.431 -51.5945
4 40.7325 8.1465 -54.31
4 39.3747 6.78875 -52.9522
4 39.3747 9.50425 -50.2368
4 42.0902 6.78875 -50.2368
4 42.0902 9.50425 -52.9522
4 43.448 5.431 -54.31
4 43.448 8.1465 -51.5945
4 46.1635 5.431 -51.5945
4 46.1635 8.1465 -54.31
4 44.8058 6.78875 -52.9522
4 44.8058 9.50425 -50.2368
4 47.5213 6.78875 -50.2368
4 47.5213 9.50425 -52.9522
4 48.879 5.431 -54.31
4 48.879 8.1465 -51.5945
4 51.5945 5.431 -51.5945
4 51.5945 8.1465 -54.31
4 50.2368 6.78875 -52.9522
4 50.2368 9.50425 -50.2368
4 52.9522 6.78875 -50.2368
4 52.9522 9.50425 -52.9522
4 0 10.862 -54.31
4 0 13.5775 -51.5945
4 2.7155 10.862 -51.5945
4 2.7155 13.5775 -54.31
4 1.35775 12.2197 -52.9522
4 1.35775 14.9352 -50.2368
4 4.07325 12.2197 -50.2368
4 4.07325 14.9352 -52.9522
4 5.431 10.862 -54.31
4 5.431 13.5775 -51.5945
4 8.1465 10.862 -51.5945
4 8.1465 13.5775 -54.31
4 6.78875 12.2197 -52.9522
4 6.78875 14.9352 -50.2368
4 9.50425 12.2197 -50.2368
4 9.50425 14.9352 -52.9522
4 10.862 10.862 -54.31
4 10.862 13.5775 -51.5945
4 13.5775 10.862 -51.5945
4 13.5775 13.5775 -54.31
4 12.2197 12.2197 -52.9522
4 12.2197 14.9352 -50.2368
4 14.9352 12.2197 -50.2368
4 14.9352 14.9352 -52.9522
4 16.293 10.862 -54.31
4 16.293 13.5775 -51.5945
4 19.0085 10.862 -51.5945
4 19.0085 13.5775 -54.31
4 17.6507 12.2197 -52.9522
4 17.6507 14.9352 -50.2368
4 20.3663 12.2197 -50.2368
4 20.3663 14.9352 -52.9522
4 21.724 10.862 -54.31
4 21.724 13.5775 -51.5945
4 24.4395 10.862 -51.5945
4 24.4395 13.5775 -54.31
4 23.0817 12.2197 -52.9522
4 23.0817 14.9352 -50.2368
4 25.7973 12.2197 -50.2368
4 25.7973 14.9352 -52.9522
4 27.155 10.862 -54.31
4 27.155 13.5775 -51.5945
4 29.8705 10.862 -51.5945
4 29.8705 13.5775 -54.31
4 28.5128 12.2197 -52.9522
4 28.5128 14.9352 -50.2368
4 31.2282 12.2197 -50.2368
4 31.2282 14.9352 -52.9522
4 32.586 10.862 -54.31
4 32.586 13.5775 -51.5945
4 35.3015 10.862 -51.5945
4 35.3015 13.5775 -54.31
4 33.9438 12.2197 -52.9522
4 33.9438 14.9352 -50.2368
4 36.6593 12.2197 -50.2368
4 36.6593 14.9352 -52.9522
4 38.017 10.862 -54.31
4 38.017 13.5775 -51.5945
4 40.7325 10.862 -51.5945
4 40.7325 13.5775 -54.31
4 39.3747 12.2197 -52.9522
4 39.3747 14.9352 -50.2368
4 42.0902 12.2197 -50.2368
4 42.0902 14.9352 -52.9522
4 43.448 10.862 -54.31
4 43.448 13.5775 -51.5945
4 46.1635 10.862 -51.5945
4 46.1635 13.5775 -54.31
4 44.8058 12.2197 -52.9522
4 44.8058 14.9352 -50.2368
4 47.5213 12.2197 -50.2368
4 47.5213 14.9352 -52.9522
4 48.879 10.862 -54.31
4 48.879 13.5775 -51.5945
4 51.5945 10.862 -51.5945
4 51.5945 13.5775 -54.31
4 50.2368 12.2197 -52.9522
4 50.2368 14.9352 -50.2368
4 52.9522 12.2197 -50.2368
4 52.9522 14.9352 -52.9522
4 0 16.293 -54.31
4 0 19.0085 -51.5945
4 2.7155 16.293 -51.5945
4 2.7155 19.0085 -54.31
4 1.35775 17.6507 -52.9522
4 1.35775 20.3663 -50.2368
4 4.07325 17.6507 -50.2368
4 4.07325 20.3663 -52.9522
4 5.431 16.293 -54.31
4 5.431 19.0085 -51.5945
4 8.1465 16.293 -51.5945
4 8.1465 19.0085 -54.31
4 6.78875 17.6507 -52.9522
4 6.78875 20.3663 -50.2368
4 9.50425 17.6507 -50.2368
4 9.50425 20.3663 -52.9522
4 10.862 16.293 -54.31
4 10.862 19.0085 -51.5945
4 13.5775 16.293 -51.5945
4 13.5775 19.0085 -54.31
4 12.2197 17.6507 -52.9522
4 12.2197 20.3663 -50.2368
4 14.9352 17.6507 -50.2368
4 14.9352 20.3663 -52.9522
4 16.293 16.293 -54.31
4 16.293 19.0085 -51.5945
4 19.0085 16.293 -51.5945
4 19.0085 19.0085 -54.31
4 17.6507 17.6507 -52.9522
4 17.6507 20.3663 -50.2368
4 20.3663 17.6507 -50.2368
4 20.3663 20.3663 -52.9522
4 21.724 16.293 -54.31
4 21.724 19.0085 -51.5945
4 24.4395 16.293 -51.5945
4 24.4395 19.0085 -54.31
4 23.0817 17.6507 -52.9522
4 23.0817 20.3663 -50.2368
4 25.7973 17.6507 -50.2368
4 25.7973 20.3663 -52.9522
4 27.155 16.293 -54.31
4 27.155 19.0085 -51.5945
4 29.8705 16.293 -51.5945
4 29.8705 19.0085 -54.31
4 28.5128 17.6507 -52.9522
4 28.5128 20.3663 -50.2368
4 31.2282 17.6507 -50.2368
4 31.2282 20.3663 -52.9522
4 32.586 16.293 -54.31
4 32.586 19.0085 -51.5945
4 35.3015 16.293 -51.5945
4 35.3015 19.0085 -54.31
4 33.9438 17.6507 -52.9522
4 33.9438 20.3663 -50.2368
4 36.6593 17.6507 -50.2368
4 36.6593 20.3663 -52.9522
4 38.017 16.293 -54.31
4 38.017 19.0085 -51.5945
4 40.7325 16.293 -51.5945
4 40.7325 19.0085 -54.31
4 39.3747 17.6507 -52.9522
4 39.3747 20.3663 -50.2368
4 42.0902 17.6507 -50.2368
4 42.0902 20.3663 -52.9522
4 43.448 16.293 -54.31
4 43.448 19.0085 -51.5945
4 46.1635 16.293 -51.5945
4 46.1635 19.0085 -54.31
4 44.8058 17.6507 -52.9522
4 44.8058 20.3663 -50.2368
4 47.5213 17.6507 -50.2368
4 47.5213 20.3663 -52.9522
4 48.879 16.293 -54.31
4 48.879 19.0085 -51.5945
4 51.5945 16.293 -51.5945
4 51.5945 19.0085 -54.31
4 50.2368 17.6507 -52.9522
4 50.2368 20.3663 -50.2368
4 52.9522 17.6507 -50.2368
4 52.9522 20.3663 -52.9522
4 0 21.724 -54.31
4 0 24.4395 -51.5945
4 2.7155 21.724 -51.5945
4 2.7155 24.4395 -54.31
4 1.35775 23.0817 -52.9522
4 1.35775 25.7973 -50.2368
4 4.07325 23.0817 -50.2368
4 4.07325 25.7973 -52.9522
4 5.431 21.724 -54.31
4 5.431 24.4395 -51.5945
4 8.1465 21.724 -51.5945
4 8.1465 24.4395 -54.31
4 6.78875 23.0817 -52.9522
4 6.78875 25.7973 -50.2368
4 9.50425 23.0817 -50.2368
4 9.50425 25.7973 -52.9522
4 10.862 21.724 -54.31
4 10.862 24.4395 -51.5945
4 13.5775 21.724 -51.5945
4 13.5775 24.4395 -54.31
4 12.2197 23.0817 -52.9522
4 12.2197 25.7973 -50.2368
4 14.9352 23.0817 -50.2368
4 14.9352 25.7973 -52.9522
4 16.293 21.724 -54.31
4 16.293 24.4395 -51.5945
4 19.0085 21.724 -51.5945
4 19.0085 24.4395 -54.31
4 17.6507 23.0817 -52.9522
4 17.6507 25.7973 -50.2368
4 20.3663 23.0817 -50.2368
4 20.3663 25.7973 -52.9522
4 21.724 21.724 -54.31
4 21.724 24.4395 -51.5945
4 24.4395 21.724 -51.5945
4 24.4395 24.4395 -54.31
4 23.0817 23.0817 -52.9522
4 23.0817 25.7973 -50.2368
4 25.7973 23.0817 -50.2368
4 25.7973 25.7973 -52.9522
4 27.155 21.724 -54.31
4 27.155 24.4395 -51.5945
4 29.8705 21.724 -51.5945
4 29.8705 24.4395 -54.31
4 28.5128 23.0817 -52.9522
4 28.5128 25.7973 -50.2368
4 31.2282 23.0817 -50.2368
4 31.2282 25.7973 -52.9522
4 32.586 21.724 -54.31
4 32.586 24.4395 -51.5945
4 35.3015 21.724 -51.5945
4 35.3015 24.4395 -54.31
4 33.9438 23.0817 -52.9522
4 33.9438 25.7973 -50.2368
4 36.6593 23.0817 -50.2368
4 36.6593 25.7973 -52.9522
4 38.017 21.724 -54.31
4 38.017 24.4395 -51.5945
4 40.7325 21.724 -51.5945
4 40.7325 24.4395 -54.31
4 39.3747 23.0817 -52.9522
4 39.3747 25.7973 -50.2368
4 42.0902 23.0817 -50.2368
4 42.0902 25.7973 -52.9522
4 43.448 21.724 -54.31
4 43.448 24.4395 -51.5945
4 46.1635 21.724 -51.5945
4 46.1635 24.4395 -54.31
4 44.8058 23.0817 -52.9522
4 44.8058 25.7973 -50.2368
4 47.5213 23.0817 -50.2368
4 47.5213 25.7973 -52.9522
4 48.879 21.724 -54.31
4 48.879 24.4395 -51.5945
4 51.5945 21.724 -51.5945
4 51.5945 24.4395 -54.31
4 50.2368 23.0817 -52.9522
4 50.2368 25.7973 -50.2368
4 52.9522 23.0817 -50.2368
4 52.9522 25.7973 -52.9522
4 0 27.155 -54.31
4 0 29.8705 -51.5945
4 2.7155 27.155 -51.5945
4 2.7155 29.8705 -54.31
4 1.35775 28.5128 -52.9522
4 1.35775 31.2282 -50.2368
4 4.07325 28.5128 -50.2368
4 4.07325 31.2282 -52.9522
4 5.431 27.155 -54.31
4 5.431 29.8705 -51.5945
4 8.1465 27.155 -51.5945
4 8.1465 29.8705 -54.31
4 6.78875 28.5128 -52.9522
4 6.78875 31.2282 -50.2368
4 9.50425 28.5128 -50.2368
4 9.50425 31.2282 -52.9522
4 10.862 27.155 -54.31
4 10.862 29.8705 -51.5945
4 13.5775 27.155 -51.5945
4 13.5775 29.8705 -54.31
4 12.2197 28.5128 -52.9522
4 12.2197 31.2282 -50.2368
4 14.9352 28.5128 -50.2368
4 14.9352 31.2282 -52.9522
4 16.293 27.155 -54.31
4 16.293 29.8705 -51.5945
4 19.0085 27.155 -51.5945
4 19.0085 29.8705 -54.31
4 17.6507 28.5128 -52.9522
4 17.6507 31.2282 -50.2368
4 20.3663 28.5128 -50.2368
4 20.3663 31.2282 -52.9522
4 21.724 27.155 -54.31
4 21.724 29.8705 -51.5945
4 24.4395 27.155 -51.5945
4 24.4395 29.8705 -54.31
4 23.0817 28.5128 -52.9522
4 23.0817 31.2282 -50.2368
4 25.7973 28.5128 -50.2368
4 25.7973 31.2282 -52.9522
4 27.155 27.155 -54.31
4 27.155 29.8705 -51.5945
4 29.8705 27.155 -51.5945
4 29.8705 29.8705 -54.31
4 28.5128 28.5128 -52.9522
4 28.5128 31.2282 -50.2368
4 31.2282 28.5128 -50.2368
4 31.2282 31.2282 -52.9522
4 32.586 27.155 -54.31
4 32.586 29.8705 -51.5945
4 35.3015 27.155 -51.5945
4 35.3015 29.8705 -54.31
4 33.9438 28.5128 -52.9522
4 33.9438 31.2282 -50.2368
4 36.6593 28.5128 -50.2368
4 36.6593 31.2282 -52.9522
4 38.017 27.155 -54.31
4 38.017 29.8705 -51.5945
4 40.7325 27.155 -51.5945
4 40.7325 29.8705 -54.31
4 39.3747 28.5128 -52.9522
4 39.3747 31.2282 -50.2368
4 42.0902 28.5128 -50.2368
4 42.0902 31.2282 -52.9522
4 43.448 27.155 -54.31
4 43.448 29.8705 -51.5945
4 46.1635 27.155 -51.5945
4 46.1635 29.8705 -54.31
4 44.8058 28.5128 -52.9522
4 44.8058 31.2282 -50.2368
4 47.5213 28.5128 -50.2368
4 47.5213 31.2282 -52.9522
4 48.879 27.155 -54.31
4 48.879 29.8705 -51.5945
4 51.5945 27.155 -51.5945
4 51.5945 29.8705 -54.31
4 50.2368 28.5128 -52.9522
4 50.2368 31.2282 -50.2368
4 52.9522 28.5128 -50.2368
4 52.9522 31.2282 -52.9522
4 0 32.586 -54.31
4 0 35.3015 -51.5945
4 2.7155 32.586 -51.5945
4 2.7155 35.3015 -54.31
4 1.35775 33.9438 -52.9522
4 1.35775 36.6593 -50.2368
4 4.07325 33.9438 -50.2368
4 4.07325 36.6593 -52.9522
4 5.431 32.586 -54.31
4 5.431 35.3015 -51.5945
4 8.1465 32.586 -51.5945
4 8.1465 35.3015 -54.31
4 6.78875 33.9438 -52.9522
4 6.78875 36.6593 -50.2368
4 9.50425 33.9438 -50.2368
4 9.50425 36.6593 -52.9522
4 10.862 32.586 -54.31
4 10.862 35.3015 -51.5945
4 13.5775 32.586 -51.5945
4 13.5775 35.3015 -54.31
4 12.2197 33.9438 -52.9522
4 12.2197 36.6593 -50.2368
4 14.9352 33.9438 -50.2368
4 14.9352 36.6593 -52.9522
4 16.293 32.586 -54.31
4 16.293 35.3015 -51.5945
4 19.0085 32.586 -51.5945
4 19.0085 35.3015 -54.31
4 17.6507 33.9438 -52.9522
4 17.6507 36.6593 -50.2368
4 20.3663 33.9438 -50.2368
4 20.3663 36.6593 -52.9522
4 21.724 32.586 -54.31
4 21.724 35.3015 -51.5945
4 24.4395 32.586 -51.5945
4 24.4395 35.3015 -54.31
4 23.0817 33.9438 -52.9522
4 23.0817 36.6593 -50.2368
4 25.7973 33.9438 -50.2368
4 25.7973 36.6593 -52.9522
4 27.155 32.586 -54.31
4 27.155 35.3015 -51.5945
4 29.8705 32.586 -51.5945
4 29.8705 35.3015 -54.31
4 28.5128 33.9438 -52.9522
4 28.5128 36.6593 -50.2368
4 31.2282 33.9438 -50.2368
4 31.2282 36.6593 -52.9522
4 32.586 32.586 -54.31
4 32.586 35.3015 -51.5945
4 35.3015 32.586 -51.5945
4 35.3015 35.3015 -54.31
4 33.9438 33.9438 -52.9522
4 33.9438 36.6593 -50.2368
4 36.6593 33.9438 -50.2368
4 36.6593 36.6593 -52.9522
4 38.017 32.586 -54.31
4 38.017 35.3015 -51.5945
4 40.7325 32.586 -51.5945
4 40.7325 35.3015 -54.31
4 39.3747 33.9438 -52.9522
4 39.3747 36.6593 -50.2368
4 42.0902 33.9438 -50.2368
4 42.0902 36.6593 -52.9522
4 43.448 32.586 -54.31
4 43.448 35.3015 -51.5945
4 46.1635 32.586 -51.5945
4 46.1635 35.3015 -54.31
4 44.8058 33.9438 -52.9522
4 44.8058 36.6593 -50.2368
4 47.5213 33.9438 -50.2368
4 47.5213 36.6593 -52.9522
4 48.879 32.586 -54.31
4 48.879 35.3015 -51.5945
4 51.5945 32.586 -51.5945
4 51.5945 35.3015 -54.31
4 50.2368 33.9438 -52.9522
4 50.2368 36.6593 -50.2368
4 52.9522 33.9438 -50.2368
4 52.9522 36.6593 -52.9522
4 0 38.017 -54.31
4 0 40.7325 -51.5945
4 2.7155 38.017 -51.5945
4 2.7155 40.7325 -54.31
4 1.35775 39.3747 -52.9522
4 1.35775 42.0902 -50.2368
4 4.07325 39.3747 -50.2368
4 4.07325 42.0902 -52.9522
4 5.431 38.017 -54.31
4 5.431 40.7325 -51.5945
4 8.1465 38.017 -51.5945
4 8.1465 40.7325 -54.31
4 6.78875 39.3747 -52.9522
4 6.78875 42.0902 -50.2368
4 9.50425 39.3747 -50.2368
4 9.50425 42.0902 -52.9522
4 10.862 38.017 -54.31
4 10.862 40.7325 -51.5945
4 13.5775 38.017 -51.5945
4 13.5775 40.7325 -54.31
4 12.2197 39.3747 -52.9522
4 12.2197 42.0902 -50.2368
4 14.9352 39.3747 -50.2368
4 14.9352 42.0902 -52.9522
4 16.293 38.017 -54.31
4 16.293 40.7325 -51.5945
4 19.0085 38.017 -51.5945
4 19.0085 40.7325 -54.31
4 17.6507 39.3747 -52.9522
4 17.6507 42.0902 -50.2368
4 20.3663 39.3747 -50.2368
4 20.3663 42.0902 -52.9522
4 21.724 38.017 -54.31
4 21.724 40.7325 -51.5945
4 24.4395 38.017 -51.5945
4 24.4395 40.7325 -54.31
4 23.0817 39.3747 -52.9522
4 23.0817 42.0902 -50.2368
4 25.7973 39.3747 -50.2368
4 25.7973 42.0902 -52.9522
4 27.155 38.017 -54.31
4 27.155 40.7325 -51.5945
4 29.8705 38.017 -51.5945
4 29.8705 40.7325 -54.31
4 28.5128 39.3747 -52.9522
4 28.5128 42.0902 -50.2368
4 31.2282 39.3747 -50.2368
4 31.2282 42.0902 -52.9522
4 32.586 38.017 -54.31
4 32.586 40.7325 -51.5945
4 35.3015 38.017 -51.5945
4 35.3015 40.7325 -54.31
4 33.9438 39.3747 -52.9522
4 33.9438 42.0902 -50.2368
4 36.6593 39.3747 -50.2368
4 36.6593 42.0902 -52.9522
4 38.017 38.017 -54.31
4 38.017 40.7325 -51.5945
4 40.7325 38.017 -51.5945
4 40.7325 40.7325 -54.31
4 39.3747 39.3747 -52.9522
4 39.3747 42.0902 -50.2368
4 42.0902 39.3747 -50.2368
4 42.0902 42.0902 -52.9522
4 43.448 38.017 -54.31
4 43.448 40.7325 -51.5945
4 46.1635 38.017 -51.5945
4 46.1635 40.7325 -54.31
4 44.8058 39.3747 -52.9522
4 44.8058 42.0902 -50.2368
4 47.5213 39.3747 -50.2368
4 47.5213 42.0902 -52.9522
4 48.879 38.017 -54.31
4 48.879 40.7325 -51.5945
4 51.5945 38.017 -51.5945
4 51.5945 40.7325 -54.31
4 50.2368 39.3747 -52.9522
4 50.2368 42.0902 -50.2368
4 52.9522 39.3747 -50.2368
4 52.9522 42.0902 -52.9522
4 0 43.448 -54.31
4 0 46.1635 -51.5945
4 2.7155 43.448 -51.5945
4 2.7155 46.1635 -54.31
4 1.35775 44.8058 -52.9522
4 1.35775 47.5213 -50.2368
4 4.07325 44.8058 -50.2368
4 4.07325 47.5213 -52.9522
4 5.431 43.448 -54.31
4 5.431 46.1635 -51.5945
4 8.1465 43.448 -51.5945
4 8.1465 46.1635 -54.31
4 6.78875 44.8058 -52.9522
4 6.78875 47.5213 -50.2368
4 9.50425 44.8058 -50.2368
4 9.50425 47.5213 -52.9522
4 10.862 43.448 -54.31
4 10.862 46.1635 -51.5945
4 13.5775 43.448 -51.5945
4 13.5775 46.1635 -54.31
4 12.2197 44.8058 -52.9522
4 12.2197 47.5213 -50.2368
4 14.9352 44.8058 -50.2368
4 14.9352 47.5213 -52.9522
4 16.293 43.448 -54.31
4 16.293 46.1635 -51.5945
4 19.0085 43.448 -51.5945
4 19.0085 46.1635 -54.31
4 17.6507 44.8058 -52.9522
4 17.6507 47.5213 -50.2368
4 20.3663 44.8058 -50.2368
4 20.3663 47.5213 -52.9522
4 21.724 43.448 -54.31
4 21.724 46.1635 -51.5945
4 24.4395 43.448 -51.5945
4 24.4395 46.1635 -54.31
4 23.0817 44.8058 -52.9522
4 23.0817 47.5213 -50.2368
4 25.7973 44.8058 -50.2368
4 25.7973 47.5213 -52.9522
4 27.155 43.448 -54.31
4 27.155 46.1635 -51.5945
4 29.8705 43.448 -51.5945
4 29.8705 46.1635 -54.31
4 28.5128 44.8058 -52.9522
4 28.5128 47.5213 -50.2368
4 31.2282 44.8058 -50.2368
4 31.2282 47.5213 -52.9522
4 32.586 43.448 -54.31
4 32.586 46.1635 -51.5945
4 35.3015 43.448 -51.5945
4 35.3015 46.1635 -54.31
4 33.9438 44.8058 -52.9522
4 33.9438 47.5213 -50.2368
4 36.6593 44.8058 -50.2368
4 36.6593 47.5213 -52.9522
4 38.017 43.448 -54.31
4 38.017 46.1635 -51.5945
4 40.7325 43.448 -51.5945
4 40.7325 46.1635 -54.31
4 39.3747 44.8058 -52.9522
4 39.3747 47.5213 -50.2368
4 42.0902 44.8058 -50.2368
4 42.0902 47.5213 -52.9522
4 43.448 43.448 -54.31
4 43.448 46.1635 -51.5945
4 46.1635 43.448 -51.5945
4 46.1635 46.1635 -54.31
4 44.8058 44.8058 -52.9522
4 44.8058 47.5213 -50.2368
4 47.5213 44.8058 -50.2368
4 47.5213 47.5213 -52.9522
4 48.879 43.448 -54.31
4 48.879 46.1635 -51.5945
4 51.5945 43.448 -51.5945
4 51.5945 46.1635 -54.31
4 50.2368 44.8058 -52.9522
4 50.2368 47.5213 -50.2368
4 52.9522 44.8058 -50.2368
4 52.9522 47.5213 -52.9522
4 0 48.879 -54.31
4 0 51.5945 -51.5945
4 2.7155 48.879 -51.5945
4 2.7155 51.5945 -54.31
4 1.35775 50.2368 -52.9522
4 1.35775 52.9522 -50.2368
4 4.07325 50.2368 -50.2368
4 4.07325 52.9522 -52.9522
4 5.431 48.879 -54.31
4 5.431 51.5945 -51.5945
4 8.1465 48.879 -51.5945
4 8.1465 51.5945 -54.31
4 6.78875 50.2368 -52.9522
4 6.78875 52.9522 -50.2368
4 9.50425 50.2368 -50.2368
4 9.50425 52.9522 -52.9522
4 10.862 48.879 -54.31
4 10.862 51.5945 -51.5945
4 13.5775 48.879 -51.5945
4 13.5775 51.5945 -54.31
4 12.2197 50.2368 -52.9522
4 12.2197 52.9522 -50.2368
4 14.9352 50.2368 -50.2368
4 14.9352 52.9522 -52.9522
4 16.293 48.879 -54.31
4 16.293 51.5945 -51.5945
4 19.0085 48.879 -51.5945
4 19.0085 51.5945 -54.31
4 17.6507 50.2368 -52.9522
4 17.6507 52.9522 -50.2368
4 20.3663 50.2368 -50.2368
4 20.3663 52.9522 -52.9522
4 21.724 48.879 -54.31
4 21.724 51.5945 -51.5945
4 24.4395 48.879 -51.5945
4 24.4395 51.5945 -54.31
4 23.0817 50.2368 -52.9522
4 23.0817 52.9522 -50.2368
4 25.7973 50.2368 -50.2368
4 25.7973 52.9522 -52.9522
4 27.155 48.879 -54.31
4 27.155 51.5945 -51.5945
4 29.8705 48.879 -51.5945
4 29.8705 51.5945 -54.31
4 28.5128 50.2368 -52.9522
4 28.5128 52.9522 -50.2368
4 31.2282 50.2368 -50.2368
4 31.2282 52.9522 -52.9522
4 32.586 48.879 -54.31
4 32.586 51.5945 -51.5945
4 35.3015 48.879 -51.5945
4 35.3015 51.5945 -54.31
4 33.9438 50.2368 -52.9522
4 33.9438 52.9522 -50.2368
4 36.6593 50.2368 -50.2368
4 36.6593 52.9522 -52.9522
4 38.017 48.879 -54.31
4 38.017 51.5945 -51.5945
4 40.7325 48.879 -51.5945
4 40.7325 51.5945 -54.31
4 39.3747 50.2368 -52.9522
4 39.3747 52.9522 -50.2368
4 42.0902 50.2368 -50.2368
4 42.0902 52.9522 -52.9522
4 43.448 48.879 -54.31
4 43.448 51.5945 -51.5945
4 46.1635 48.879 -51.5945
4 46.1635 51.5945 -54.31
4 44.8058 50.2368 -52.9522
4 44.8058 52.9522 -50.2368
4 47.5213 50.2368 -50.2368
4 47.5213 52.9522 -52.9522
4 48.879 48.879 -54.31
4 48.879 51.5945 -51.5945
4 51.5945 48.879 -51.5945
4 51.5945 51.5945 -54.31
4 50.2368 50.2368 -52.9522
4 50.2368 52.9522 -50.2368
4 52.9522 50.2368 -50.2368
4 52.9522 52.9522 -52.9522
4 0 0 -48.879
3 2.6029 2.56969 -21.8036
4 2.7155 2.7155 -48.879
4 1.35775 1.35775 -47.5213
3 1.14605 5.82424 -21.2729
3 4.0391 3.94701 -20.5359
4 4.07325 4.07325 -47.5213
4 5.431 0 -48.879
3 5.45408 5.37036 -21.8367
3 8.06102 2.61809 -21.7862
4 8.1465 2.7155 -48.879
4 6.78875 1.35775 -47.5213
3 6.73843 6.70337 -20.4678
3 9.45608 3.9354 -20.492
4 9.50425 4.07325 -47.5213
4 10.862 0 -48.879
3 10.8341 5.34952 -21.7796
3 13.5685 2.65237 -21.85
4 13.5775 2.7155 -48.879
4 12.2197 1.35775 -47.5213
3 12.2639 6.76986 -20.5428
3 14.8318 4.04389 -20.4431
4 14.9352 4.07325 -47.5213
4 16.293 0 -48.879
3 16.2462 5.41031 -21.7917
1 19.0367 2.74212 -21.8499
4 19.0085 2.7155 -48.879
4 17.6507 1.35775 -47.5213
1 17.6105 6.83661 -20.4567
1 20.3933 4.12219 -20.4961
4 20.3663 4.07325 -47.5213
4 21.724 0 -48.879
1 21.7026 5.41767 -21.8832
1 24.4708 2.7392 -21.852
4 24.4395 2.7155 -48.879
4 23.0817 1.35775 -47.5213
1 23.0856 6.77324 -20.5848
1 25.8448 4.09122 -20.5873
4 25.7973 4.07325 -47.5213
4 27.155 0 -48.879
1 27.1647 5.49893 -21.8484
1 29.8498 2.68657 -21.921
4 29.8705 2.7155 -48.879
4 28.5128 1.35775 -47.5213
1 28.6361 6.85454 -20.5712
1 31.1678 4.00509 -20.5429
4 31.2282 4.07325 -47.5213
4 32.586 0 -48.879
1 32.5165 5.41019 -21.8306
1 35.243 2.67278 -21.8584
4 35.3015 2.7155 -48.879
4 33.9438 1.35775 -47.5213
1 33.973 6.75716 -20.5294
1 36.6884 4.03554 -20.6032
4 36.6593 4.07325 -47.5213
4 38.017 0 -48.879
1 38.1218 5.48106 -21.8481
1 40.8128 2.73896 -21.8756
4 40.7325 2.7155 -48.879
4 39.3747 1.35775 -47.5213
1 39.5198 6.81982 -20.5359
1 42.3256 4.06936 -20.677
4 42.0902 4.07325 -47.5213
4 43.448 0 -48.879
1 43.5736 5.49567 -21.9337
1 46.1796 2.75651 -21.9453
4 46.1635 2.7155 -48.879
4 44.8058 1.35775 -47.5213
1 45.0042 6.86421 -20.6571
1 47.7303 4.06868 -20.763
4 47.5213 4.07325 -47.5213
4 48.879 0 -48.879
1 49.0004 5.62431 -21.9193
1 51.8641 2.97819 -21.9385
4 51.5945 2.7155 -48.879
4 50.2368 1.35775 -47.5213
1 50.6917 7.01024 -20.8248
1 53.5687 3.8137 -20.5645
4 52.9522 4.07325 -47.5213
4 0 5.431 -48.879
3 2.48392 7.86238 -21.7735
4 2.7155 8.1465 -48.879
4 1.35775 6.78875 -47.5213
3 1.1635 11.3256 -21.1978
3 3.9198 9.24918 -20.5027
4 4.07325 9.50425 -47.5213
4 5.431 5.431 -48.879
3 5.33984 10.6918 -21.8057
3 8.08334 8.11381 -21.8073
4 8.1465 8.1465 -48.879
4 6.78875 6.78875 -47.5213
3 6.59331 12.1704 -20.4845
3 9.50933 9.54076 -20.6333
4 9.50425 9.50425 -47.5213
4 10.862 5.431 -48.879
3 10.8929 10.8928 -21.8417
3 13.5889 8.13534 -21.8488
4 13.5775 8.1465 -48.879
4 12.2197 6.78875 -47.5213
3 12.2304 12.2207 -20.4955
3 14.9397 9.47198 -20.4582
4 14.9352 9.50425 -47.5213
4 16.293 5.431 -48.879
3 16.3637 10.8461 -21.735
1 19.0489 8.20291 -21.7845
4 19.0085 8.1465 -48.879
4 17.6507 6.78875 -47.5213
1 17.7176 12.2502 -20.5127
1 20.449 9.59282 -20.4749
4 20.3663 9.50425 -47.5213
4 21.724 5.431 -48.879
1 21.7797 10.9827 -21.8222
1 24.4989 8.17176 -21.8611
4 24.4395 8.1465 -48.879
4 23.0817 6.78875 -47.5213
1 23.1124 12.3329 -20.4962
1 25.8852 9.5407 -20.532
4 25.7973 9.50425 -47.5213
4 27.155 5.431 -48.879
1 27.2444 10.9521 -21.8469
1 29.9436 8.16936 -21.8629
4 29.8705 8.1465 -48.879
4 28.5128 6.78875 -47.5213
1 28.5521 12.3618 -20.5009
1 31.3942 9.62793 -20.5581
4 31.2282 9.50425 -47.5213
4 32.586 5.431 -48.879
1 32.6503 10.9583 -21.9744
1 35.2007 8.1895 -21.9052
4 35.3015 8.1465 -48.879
4 33.9438 6.78875 -47.5213
1 33.9536 12.2634 -20.6211
1 36.7162 9.46323 -20.6633
4 36.6593 9.50425 -47.5213
4 38.017 5.431 -48.879
1 38.012 10.9075 -21.8828
1 40.7887 8.24495 -21.8326
4 40.7325 8.1465 -48.879
4 39.3747 6.78875 -47.5213
1 39.4629 12.1598 -20.6415
1 42.2225 9.59189 -20.5943
4 42.0902 9.50425 -47.5213
4 43.448 5.431 -48.879
1 43.5239 10.9668 -21.9038
1 46.3831 8.25908 -21.8942
4 46.1635 8.1465 -48.879
4 44.8058 6.78875 -47.5213
1 45.0086 12.2668 -20.7177
1 47.8989 9.52372 -20.6928
4 47.5213 9.50425 -47.5213
4 48.879 5.431 -48.879
1 49.1184 11.113 -21.8986
1 52.0052 8.5366 -21.9966
4 51.5945 8.1465 -48.879
4 50.2368 6.78875 -47.5213
1 50.7379 12.3557 -20.7034
1 53.5155 10.4417 -21.5944
4 52.9522 9.50425 -47.5213
4 0 10.862 -48.879
3 2.44971 13.3525 -21.8177
4 2.7155 13.5775 -48.879
4 1.35775 12.2197 -47.5213
3 1.20652 17.913 -20.0517
3 3.8581 14.8478 -20.3811
4 4.07325 14.9352 -47.5213
4 5.431 10.862 -48.879
3 5.31299 16.187 -21.8
3 8.10787 13.5752 -21.7911
4 8.1465 13.5775 -48.879
4 6.78875 12.2197 -47.5213
3 6.7072 17.5808 -20.4771
3 9.59408 14.9617 -20.5148
4 9.50425 14.9352 -47.5213
4 10.862 10.862 -48.879
3 10.8641 16.3369 -21.8642
3 13.6092 13.6314 -21.7617
4 13.5775 13.5775 -48.879
4 12.2197 12.2197 -47.5213
3 12.2308 17.6414 -20.4117
3 15.0457 15.0079 -20.4624
4 14.9352 14.9352 -47.5213
4 16.293 10.862 -48.879
3 16.2859 16.3399 -21.8515
1 19.0721 13.6287 -21.8071
4 19.0085 13.5775 -48.879
4 17.6507 12.2197 -47.5213
1 17.7308 17.7036 -20.5069
1 20.4584 14.9672 -20.4933
4 20.3663 14.9352 -47.5213
4 21.724 10.862 -48.879
1 21.7804 16.3872 -21.8567
1 24.5134 13.6592 -21.8725
4 24.4395 13.5775 -48.879
4 23.0817 12.2197 -47.5213
1 23.1579 17.7376 -20.4218
1 25.8245 15.0377 -20.5107
4 25.7973 14.9352 -47.5213
4 27.155 10.862 -48.879
1 27.2615 16.3874 -21.8642
1 29.8236 13.5575 -21.936
4 29.8705 13.5775 -48.879
4 28.5128 12.2197 -47.5213
1 28.6175 17.7151 -20.5424
1 31.1755 14.8568 -20.5298
4 31.2282 14.9352 -47.5213
4 32.586 10.862 -48.879
1 32.548 16.2811 -21.8629
1 35.2955 13.5952 -21.8924
4 35.3015 13.5775 -48.879
4 33.9438 12.2197 -47.5213
1 34.0491 17.7309 -20.6375
1 36.6731 14.9834 -20.6948
4 36.6593 14.9352 -47.5213
4 38.017 10.862 -48.879
1 38.1036 16.4285 -21.9255
1 40.8038 13.5786 -21.8931
4 40.7325 13.5775 -48.879
4 39.3747 12.2197 -47.5213
1 39.4752 17.7267 -20.5825
1 42.2562 14.9502 -20.6107
4 42.0902 14.9352 -47.5213
4 43.448 10.862 -48.879
1 43.5129 16.3943 -21.9091
1 46.284 13.7278 -21.9841
4 46.1635 13.5775 -48.879
4 44.8058 12.2197 -47.5213
1 44.963 17.7163 -20.6682
1 47.7943 15.0305 -20.7815
4 47.5213 14.9352 -47.5213
4 48.879 10.862 -48.879
1 49.0564 16.4657 -22.0017
1 51.9511 13.9126 -21.9525
4 51.5945 13.5775 -48.879
4 50.2368 12.2197 -47.5213
1 50.4839 17.8883 -20.7665
1 53.3391 15.8653 -21.6296
4 52.9522 14.9352 -47.5213
4 0 16.293 -48.879
3 2.54162 18.8516 -21.8637
4 2.7155 19.0085 -48.879
4 1.35775 17.6507 -47.5213
3 1.0658 22.1504 -21.3597
3 3.97007 20.2522 -20.4915
4 4.07325 20.3663 -47.5213
4 5.431 16.293 -48.879
3 5.35822 21.6341 -21.8138
3 8.14356 18.9482 -21.8123
4 8.1465 19.0085 -48.879
4 6.78875 17.6507 -47.5213
3 6.63377 23.0554 -20.4628
3 9.39288 20.372 -20.4762
4 9.50425 20.3663 -47.5213
4 10.862 16.293 -48.879
3 10.8216 21.6935 -21.845
3 13.5787 19.0556 -21.8325
4 13.5775 19.0085 -48.879
4 12.2197 17.6507 -47.5213
3 12.1648 23.014 -20.4587
3 14.9172 20.3564 -20.5055
4 14.9352 20.3663 -47.5213
4 16.293 16.293 -48.879
3 16.2494 21.6898 -21.8149
1 19.0745 19.0154 -21.7792
4 19.0085 19.0085 -48.879
4 17.6507 17.6507 -47.5213
1 17.6374 23.1244 -20.5065
1 20.3773 20.3704 -20.4789
4 20.3663 20.3663 -47.5213
4 21.724 16.293 -48.879
1 21.7978 21.848 -21.7917
1 24.5158 19.0787 -21.7692
4 24.4395 19.0085 -48.879
4 23.0817 17.6507 -47.5213
1 23.1893 23.1976 -20.5136
1 25.8665 20.4602 -20.4451
4 25.7973 20.3663 -47.5213
4 27.155 16.293 -48.879
1 27.1759 21.7424 -21.8283
1 29.9414 19.0969 -21.8723
4 29.8705 19.0085 -48.879
4 28.5128 17.6507 -47.5213
1 28.5917 23.1459 -20.4566
1 31.375 20.5098 -20.5762
4 31.2282 20.3663 -47.5213
4 32.586 16.293 -48.879
1 32.6621 21.8552 -21.8942
1 35.3784 19.0817 -21.9577
4 35.3015 19.0085 -48.879
4 33.9438 17.6507 -47.5213
1 34.0555 23.2184 -20.5109
1 36.741 20.5177 -20.6246
4 36.6593 20.3663 -47.5213
4 38.017 16.293 -48.879
1 38.1267 21.7969 -21.9162
1 40.751 19.0393 -21.8816
4 40.7325 19.0085 -48.879
4 39.3747 17.6507 -47.5213
1 39.5361 23.1606 -20.6377
1 42.2758 20.4181 -20.597
4 42.0902 20.3663 -47.5213
4 43.448 16.293 -48.879
1 43.5566 21.7479 -21.8928
1 46.2691 19.1105 -21.9866
4 46.1635 19.0085 -48.879
4 44.8058 17.6507 -47.5213
1 45.0368 23.0427 -20.7339
1 47.681 20.3971 -20.6714
4 47.5213 20.3663 -47.5213
4 48.879 16.293 -48.879
1 48.9765 21.8395 -21.8835
1 51.9141 19.3634 -21.9471
4 51.5945 19.0085 -48.879
4 50.2368 17.6507 -47.5213
1 50.4846 23.3387 -20.6726
1 53.3357 21.2771 -21.4979
4 52.9522 20.3663 -47.5213
4 0 21.724 -48.879
3 2.46509 24.1996 -21.8464
4 2.7155 24.4395 -48.879
4 1.35775 23.0817 -47.5213
3 1.2127 28.709 -20.2327
3 3.86409 25.6597 -20.5195
4 4.07325 25.7973 -47.5213
4 5.431 21.724 -48.879
3 5.34283 27.1055 -21.7682
3 8.06898 24.3472 -21.8343
4 8.1465 24.4395 -48.879
4 6.78875 23.0817 -47.5213
3 6.65353 28.5121 -20.4551
3 9.39946 25.7832 -20.3806
4 9.50425 25.7973 -47.5213
4 10.862 21.724 -48.879
3 10.7657 27.1088 -21.7286
3 13.5343 24.3782 -21.8283
4 13.5775 24.4395 -48.879
4 12.2197 23.0817 -47.5213
3 12.1899 28.4938 -20.4719
3 14.9187 25.8103 -20.5446
4 14.9352 25.7973 -47.5213
4 16.293 21.724 -48.879
3 16.3523 27.1815 -21.8294
1 19.0632 24.4832 -21.7867
4 19.0085 24.4395 -48.879
4 17.6507 23.0817 -47.5213
1 17.655 28.5118 -20.4718
1 20.3992 25.8667 -20.5306
4 20.3663 25.7973 -47.5213
4 21.724 21.724 -48.879
1 21.7614 27.1883 -21.8096
1 24.5353 24.5124 -21.8261
4 24.4395 24.4395 -48.879
4 23.0817 23.0817 -47.5213
1 23.1152 28.4717 -20.4623
1 25.9172 25.7781 -20.4959
4 25.7973 25.7973 -47.5213
4 27.155 21.724 -48.879
1 27.2974 27.177 -21.8274
1 29.9644 24.5113 -21.7805
4 29.8705 24.4395 -48.879
4 28.5128 23.0817 -47.5213
1 28.5919 28.4829 -20.4352
1 31.2871 25.8057 -20.4202
4 31.2282 25.7973 -47.5213
4 32.586 21.724 -48.879