15589
 Atoms. Timestep: 25000
4 0 0 -54.31
4 0 2.7155 -51.5945
4 2.7155 0 -51.5945
4 2.7155 2.7155 -54.31
4 1.35775 1.35775 -52.9522
4 1.35775 4.07325 -50.2368
4 4.07325 1.35775 -50.2368
4 4.07325 4.07325 -52.9522
4 5.431 0 -54.31
4 5.431 2.7155 -51.5945
4 8.1465 0 -51.5945
4 8.1465 2.7155 -54.31
4 6.78875 1.35775 -52.9522
4 6.78875 4.07325 -50.2368
4 9.50425 1.35775 -50.2368
4 9.50425 4.07325 -52.9522
4 10.862 0 -54.31
4 10.862 2.7155 -51.5945
4 13.5775 0 -51.5945
4 13.5775 2.7155 -54.31
4 12.2197 1.35775 -52.9522
4 12.2197 4.07325 -50.2368
4 14.9352 1.35775 -50.2368
4 14.9352 4.07325 -52.9522
4 16.293 0 -54.31
4 16.293 2.7155 -51.5945
4 19.0085 0 -51.5945
4 19.0085 2.7155 -54.31
4 17.6507 1.35775 -52.9522
4 17.6507 4.07325 -50.2368
4 20.3663 1.35775 -50.2368
4 20.3663 4.07325 -52.9522
4 21.724 0 -54.31
4 21.724 2.7155 -51.5945
4 24.4395 0 -51.5945
4 24.4395 2.7155 -54.31
4 23.0817 1.35775 -52.9522
4 23.0817 4.07325 -50.2368
4 25.7973 1.35775 -50.2368
4 25.7973 4.07325 -52.9522
4 27.155 0 -54.31
4 27.155 2.7155 -51.5945
4 29.8705 0 -51.5945
4 29.8705 2.7155 -54.31
4 28.5128 1.35775 -52.9522
4 28.5128 4.07325 -50.2368
4 31.2282 1.35775 -50.2368
4 31.2282 4.07325 -52.9522
4 32.586 0 -54.31
4 32.586 2.7155 -51.5945
4 35.3015 0 -51.5945
4 35.3015 2.7155 -54.31
4 33.9438 1.35775 -52.9522
4 33.9438 4.07325 -50.2368
4 36.6593 1.35775 -50.2368
4 36.6593 4.07325 -52.9522
4 38.017 0 -54.31
4 38.017 2.7155 -51.5945
4 40.7325 0 -51.5945
4 40.7325 2.7155 -54.31
4 39.3747 1.35775 -52.9522
4 39.3747 4.07325 -50.2368
4 42.0902 1.35775 -50.2368
4 42.0902 4.07325 -52.9522
4 43.448 0 -54.31
4 43.448 2.7155 -51.5945
4 46.1635 0 -51.5945
4 46.1635 2.7155 -54.31
4 44.8058 1.35775 -52.9522
4 44.8058 4.07325 -50.2368
4 47.5213 1.35775 -50.2368
4 47.5213 4.07325 -52.9522
4 48.879 0 -54.31
4 48.879 2.7155 -51.5945
4 51.5945 0 -51.5945
4 51.5945 2.7155 -54.31
4 50.2368 1.35775 -52.9522
4 50.2368 4.07325 -50.2368
4 52.9522 1.35775 -50.2368
4 52.9522 4.07325 -52.9522
4 0 5.431 -54.31
4 0 8.1465 -51.5945
4 2.7155 5.431 -51.5945
4 2.7155 8.1465 -54.31
4 1.35775 6.78875 -52.9522
4 1.35775 9.50425 -50.2368
4 4.07325 6.78875 -50.2368
4 4.07325 9.50425 -52.9522
4 5.431 5.431 -54.31
4 5.431 8.1465 -51.5945
4 8.1465 5.431 -51.5945
4 8.1465 8.1465 -54.31
4 6.78875 6.78875 -52.9522
4 6.78875 9.50425 -50.2368
4 9.50425 6.78875 -50.2368
4 9.50425 9.50425 -52.9522
4 10.862 5.431 -54.31
4 10.862 8.1465 -51.5945
4 13.5775 5.431 -51.5945
4 13.5775 8.1465 -54.31
4 12.2197 6.78875 -52.9522
4 12.2197 9.50425 -50.2368
4 14.9352 6.78875 -50.2368
4 14.9352 9.50425 -52.9522
4 16.293 5.431 -54.31
4 16.293 8.1465 -51.5945
4 19.0085 5.431 -51.5945
4 19.0085 8.1465 -54.31
4 17.6507 6.78875 -52.9522
4 17.6507 9.50425 -50.2368
4 20.3663 6.78875 -50.2368
4 20.3663 9.50425 -52.9522
4 21.724 5.431 -54.31
4 21.724 8.1465 -51.5945
4 24.4395 5.431 -51.5945
4 24.4395 8.1465 -54.31
4 23.0817 6.78875 -52.9522
4 23.0817 9.50425 -50.2368
4 25.7973 6.78875 -50.2368
4 25.7973 9.50425 -52.9522
4 27.155 5.431 -54.31
4 27.155 8.1465 -51.5945
4 29.8705 5.431 -51.5945
4 29.8705 8.1465 -54.31
4 28.5128 6.78875 -52.9522
4 28.5128 9.50425 -50.2368
4 31.2282 6.78875 -50.2368
4 31.2282 9.50425 -52.9522
4 32.586 5.431 -54.31
4 32.586 8.1465 -51.5945
4 35.3015 5.431 -51.5945
4 35.3015 8.1465 -54.31
4 33.9438 6.78875 -52.9522
4 33.9438 9.50425 -50.2368
4 36.6593 6.78875 -50.2368
4 36.6593 9.50425 -52.9522
4 38.017 5.431 -54.31
4 38.017 8.1465 -51.5945
4 40.7325 5.431 -51.5945
4 40.7325 8.1465 -54.31
4 39.3747 6.78875 -52.9522
4 39.3747 9.50425 -50.2368
4 42.0902 6.78875 -50.2368
4 42.0902 9.50425 -52.9522
4 43.448 5.431 -54.31
4 43.448 8.1465 -51.5945
4 46.1635 5.431 -51.5945
4 46.1635 8.1465 -54.31
4 44.8058 6.78875 -52.9522
4 44.8058 9.50425 -50.2368
4 47.5213 6.78875 -50.2368
4 47.5213 9.50425 -52.9522
4 48.879 5.431 -54.31
4 48.879 8.1465 -51.5945
4 51.5945 5.431 -51.5945
4 51.5945 8.1465 -54.31
4 50.2368 6.78875 -52.9522
4 50.2368 9.50425 -50.2368
4 52.9522 6.78875 -50.2368
4 52.9522 9.50425 -52.9522
4 0 10.862 -54.31
4 0 13.5775 -51.5945
4 2.7155 10.862 -51.5945
4 2.7155 13.5775 -54.31
4 1.35775 12.2197 -52.9522
4 1.35775 14.9352 -50.2368
4 4.07325 12.2197 -50.2368
4 4.07325 14.9352 -52.9522
4 5.431 10.862 -54.31
4 5.431 13.5775 -51.5945
4 8.1465 10.862 -51.5945
4 8.1465 13.5775 -54.31
4 6.78875 12.2197 -52.9522
4 6.78875 14.9352 -50.2368
4 9.50425 12.2197 -50.2368
4 9.50425 14.9352 -52.9522
4 10.862 10.862 -54.31
4 10.862 13.5775 -51.5945
4 13.5775 10.862 -51.5945
4 13.5775 13.5775 -54.31
4 12.2197 12.2197 -52.9522
4 12.2197 14.9352 -50.2368
4 14.9352 12.2197 -50.2368
4 14.9352 14.9352 -52.9522
4 16.293 10.862 -54.31
4 16.293 13.5775 -51.5945
4 19.0085 10.862 -51.5945
4 19.0085 13.5775 -54.31
4 17.6507 12.2197 -52.9522
4 17.6507 14.9352 -50.2368
4 20.3663 12.2197 -50.2368
4 20.3663 14.9352 -52.9522
4 21.724 10.862 -54.31
4 21.724 13.5775 -51.5945
4 24.4395 10.862 -51.5945
4 24.4395 13.5775 -54.31
4 23.0817 12.2197 -52.9522
4 23.0817 14.9352 -50.2368
4 25.7973 12.2197 -50.2368
4 25.7973 14.9352 -52.9522
4 27.155 10.862 -54.31
4 27.155 13.5775 -51.5945
4 29.8705 10.862 -51.5945
4 29.8705 13.5775 -54.31
4 28.5128 12.2197 -52.9522
4 28.5128 14.9352 -50.2368
4 31.2282 12.2197 -50.2368
4 31.2282 14.9352 -52.9522
4 32.586 10.862 -54.31
4 32.586 13.5775 -51.5945
4 35.3015 10.862 -51.5945
4 35.3015 13.5775 -54.31
4 33.9438 12.2197 -52.9522
4 33.9438 14.9352 -50.2368
4 36.6593 12.2197 -50.2368
4 36.6593 14.9352 -52.9522
4 38.017 10.862 -54.31
4 38.017 13.5775 -51.5945
4 40.7325 10.862 -51.5945
4 40.7325 13.5775 -54.31
4 39.3747 12.2197 -52.9522
4 39.3747 14.9352 -50.2368
4 42.0902 12.2197 -50.2368
4 42.0902 14.9352 -52.9522
4 43.448 10.862 -54.31
4 43.448 13.5775 -51.5945
4 46.1635 10.862 -51.5945
4 46.1635 13.5775 -54.31
4 44.8058 12.2197 -52.9522
4 44.8058 14.9352 -50.2368
4 47.5213 12.2197 -50.2368
4 47.5213 14.9352 -52.9522
4 48.879 10.862 -54.31
4 48.879 13.5775 -51.5945
4 51.5945 10.862 -51.5945
4 51.5945 13.5775 -54.31
4 50.2368 12.2197 -52.9522
4 50.2368 14.9352 -50.2368
4 52.9522 12.2197 -50.2368
4 52.9522 14.9352 -52.9522
4 0 16.293 -54.31
4 0 19.0085 -51.5945
4 2.7155 16.293 -51.5945
4 2.7155 19.0085 -54.31
4 1.35775 17.6507 -52.9522
4 1.35775 20.3663 -50.2368
4 4.07325 17.6507 -50.2368
4 4.07325 20.3663 -52.9522
4 5.431 16.293 -54.31
4 5.431 19.0085 -51.5945
4 8.1465 16.293 -51.5945
4 8.1465 19.0085 -54.31
4 6.78875 17.6507 -52.9522
4 6.78875 20.3663 -50.2368
4 9.50425 17.6507 -50.2368
4 9.50425 20.3663 -52.9522
4 10.862 16.293 -54.31
4 10.862 19.0085 -51.5945
4 13.5775 16.293 -51.5945
4 13.5775 19.0085 -54.31
4 12.2197 17.6507 -52.9522
4 12.2197 20.3663 -50.2368
4 14.9352 17.6507 -50.2368
4 14.9352 20.3663 -52.9522
4 16.293 16.293 -54.31
4 16.293 19.0085 -51.5945
4 19.0085 16.293 -51.5945
4 19.0085 19.0085 -54.31
4 17.6507 17.6507 -52.9522
4 17.6507 20.3663 -50.2368
4 20.3663 17.6507 -50.2368
4 20.3663 20.3663 -52.9522
4 21.724 16.293 -54.31
4 21.724 19.0085 -51.5945
4 24.4395 16.293 -51.5945
4 24.4395 19.0085 -54.31
4 23.0817 17.6507 -52.9522
4 23.0817 20.3663 -50.2368
4 25.7973 17.6507 -50.2368
4 25.7973 20.3663 -52.9522
4 27.155 16.293 -54.31
4 27.155 19.0085 -51.5945
4 29.8705 16.293 -51.5945
4 29.8705 19.0085 -54.31
4 28.5128 17.6507 -52.9522
4 28.5128 20.3663 -50.2368
4 31.2282 17.6507 -50.2368
4 31.2282 20.3663 -52.9522
4 32.586 16.293 -54.31
4 32.586 19.0085 -51.5945
4 35.3015 16.293 -51.5945
4 35.3015 19.0085 -54.31
4 33.9438 17.6507 -52.9522
4 33.9438 20.3663 -50.2368
4 36.6593 17.6507 -50.2368
4 36.6593 20.3663 -52.9522
4 38.017 16.293 -54.31
4 38.017 19.0085 -51.5945
4 40.7325 16.293 -51.5945
4 40.7325 19.0085 -54.31
4 39.3747 17.6507 -52.9522
4 39.3747 20.3663 -50.2368
4 42.0902 17.6507 -50.2368
4 42.0902 20.3663 -52.9522
4 43.448 16.293 -54.31
4 43.448 19.0085 -51.5945
4 46.1635 16.293 -51.5945
4 46.1635 19.0085 -54.31
4 44.8058 17.6507 -52.9522
4 44.8058 20.3663 -50.2368
4 47.5213 17.6507 -50.2368
4 47.5213 20.3663 -52.9522
4 48.879 16.293 -54.31
4 48.879 19.0085 -51.5945
4 51.5945 16.293 -51.5945
4 51.5945 19.0085 -54.31
4 50.2368 17.6507 -52.9522
4 50.2368 20.3663 -50.2368
4 52.9522 17.6507 -50.2368
4 52.9522 20.3663 -52.9522
4 0 21.724 -54.31
4 0 24.4395 -51.5945
4 2.7155 21.724 -51.5945
4 2.7155 24.4395 -54.31
4 1.35775 23.0817 -52.9522
4 1.35775 25.7973 -50.2368
4 4.07325 23.0817 -50.2368
4 4.07325 25.7973 -52.9522
4 5.431 21.724 -54.31
4 5.431 24.4395 -51.5945
4 8.1465 21.724 -51.5945
4 8.1465 24.4395 -54.31
4 6.78875 23.0817 -52.9522
4 6.78875 25.7973 -50.2368
4 9.50425 23.0817 -50.2368
4 9.50425 25.7973 -52.9522
4 10.862 21.724 -54.31
4 10.862 24.4395 -51.5945
4 13.5775 21.724 -51.5945
4 13.5775 24.4395 -54.31
4 12.2197 23.0817 -52.9522
4 12.2197 25.7973 -50.2368
4 14.9352 23.0817 -50.2368
4 14.9352 25.7973 -52.9522
4 16.293 21.724 -54.31
4 16.293 24.4395 -51.5945
4 19.0085 21.724 -51.5945
4 19.0085 24.4395 -54.31
4 17.6507 23.0817 -52.9522
4 17.6507 25.7973 -50.2368
4 20.3663 23.0817 -50.2368
4 20.3663 25.7973 -52.9522
4 21.724 21.724 -54.31
4 21.724 24.4395 -51.5945
4 24.4395 21.724 -51.5945
4 24.4395 24.4395 -54.31
4 23.0817 23.0817 -52.9522
4 23.0817 25.7973 -50.2368
4 25.7973 23.0817 -50.2368
4 25.7973 25.7973 -52.9522
4 27.155 21.724 -54.31
4 27.155 24.4395 -51.5945
4 29.8705 21.724 -51.5945
4 29.8705 24.4395 -54.31
4 28.5128 23.0817 -52.9522
4 28.5128 25.7973 -50.2368
4 31.2282 23.0817 -50.2368
4 31.2282 25.7973 -52.9522
4 32.586 21.724 -54.31
4 32.586 24.4395 -51.5945
4 35.3015 21.724 -51.5945
4 35.3015 24.4395 -54.31
4 33.9438 23.0817 -52.9522
4 33.9438 25.7973 -50.2368
4 36.6593 23.0817 -50.2368
4 36.6593 25.7973 -52.9522
4 38.017 21.724 -54.31
4 38.017 24.4395 -51.5945
4 40.7325 21.724 -51.5945
4 40.7325 24.4395 -54.31
4 39.3747 23.0817 -52.9522
4 39.3747 25.7973 -50.2368
4 42.0902 23.0817 -50.2368
4 42.0902 25.7973 -52.9522
4 43.448 21.724 -54.31
4 43.448 24.4395 -51.5945
4 46.1635 21.724 -51.5945
4 46.1635 24.4395 -54.31
4 44.8058 23.0817 -52.9522
4 44.8058 25.7973 -50.2368
4 47.5213 23.0817 -50.2368
4 47.5213 25.7973 -52.9522
4 48.879 21.724 -54.31
4 48.879 24.4395 -51.5945
4 51.5945 21.724 -51.5945
4 51.5945 24.4395 -54.31
4 50.2368 23.0817 -52.9522
4 50.2368 25.7973 -50.2368
4 52.9522 23.0817 -50.2368
4 52.9522 25.7973 -52.9522
4 0 27.155 -54.31
4 0 29.8705 -51.5945
4 2.7155 27.155 -51.5945
4 2.7155 29.8705 -54.31
4 1.35775 28.5128 -52.9522
4 1.35775 31.2282 -50.2368
4 4.07325 28.5128 -50.2368
4 4.07325 31.2282 -52.9522
4 5.431 27.155 -54.31
4 5.431 29.8705 -51.5945
4 8.1465 27.155 -51.5945
4 8.1465 29.8705 -54.31
4 6.78875 28.5128 -52.9522
4 6.78875 31.2282 -50.2368
4 9.50425 28.5128 -50.2368
4 9.50425 31.2282 -52.9522
4 10.862 27.155 -54.31
4 10.862 29.8705 -51.5945
4 13.5775 27.155 -51.5945
4 13.5775 29.8705 -54.31
4 12.2197 28.5128 -52.9522
4 12.2197 31.2282 -50.2368
4 14.9352 28.5128 -50.2368
4 14.9352 31.2282 -52.9522
4 16.293 27.155 -54.31
4 16.293 29.8705 -51.5945
4 19.0085 27.155 -51.5945
4 19.0085 29.8705 -54.31
4 17.6507 28.5128 -52.9522
4 17.6507 31.2282 -50.2368
4 20.3663 28.5128 -50.2368
4 20.3663 31.2282 -52.9522
4 21.724 27.155 -54.31
4 21.724 29.8705 -51.5945
4 24.4395 27.155 -51.5945
4 24.4395 29.8705 -54.31
4 23.0817 28.5128 -52.9522
4 23.0817 31.2282 -50.2368
4 25.7973 28.5128 -50.2368
4 25.7973 31.2282 -52.9522
4 27.155 27.155 -54.31
4 27.155 29.8705 -51.5945
4 29.8705 27.155 -51.5945
4 29.8705 29.8705 -54.31
4 28.5128 28.5128 -52.9522
4 28.5128 31.2282 -50.2368
4 31.2282 28.5128 -50.2368
4 31.2282 31.2282 -52.9522
4 32.586 27.155 -54.31
4 32.586 29.8705 -51.5945
4 35.3015 27.155 -51.5945
4 35.3015 29.8705 -54.31
4 33.9438 28.5128 -52.9522
4 33.9438 31.2282 -50.2368
4 36.6593 28.5128 -50.2368
4 36.6593 31.2282 -52.9522
4 38.017 27.155 -54.31
4 38.017 29.8705 -51.5945
4 40.7325 27.155 -51.5945
4 40.7325 29.8705 -54.31
4 39.3747 28.5128 -52.9522
4 39.3747 31.2282 -50.2368
4 42.0902 28.5128 -50.2368
4 42.0902 31.2282 -52.9522
4 43.448 27.155 -54.31
4 43.448 29.8705 -51.5945
4 46.1635 27.155 -51.5945
4 46.1635 29.8705 -54.31
4 44.8058 28.5128 -52.9522
4 44.8058 31.2282 -50.2368
4 47.5213 28.5128 -50.2368
4 47.5213 31.2282 -52.9522
4 48.879 27.155 -54.31
4 48.879 29.8705 -51.5945
4 51.5945 27.155 -51.5945
4 51.5945 29.8705 -54.31
4 50.2368 28.5128 -52.9522
4 50.2368 31.2282 -50.2368
4 52.9522 28.5128 -50.2368
4 52.9522 31.2282 -52.9522
4 0 32.586 -54.31
4 0 35.3015 -51.5945
4 2.7155 32.586 -51.5945
4 2.7155 35.3015 -54.31
4 1.35775 33.9438 -52.9522
4 1.35775 36.6593 -50.2368
4 4.07325 33.9438 -50.2368
4 4.07325 36.6593 -52.9522
4 5.431 32.586 -54.31
4 5.431 35.3015 -51.5945
4 8.1465 32.586 -51.5945
4 8.1465 35.3015 -54.31
4 6.78875 33.9438 -52.9522
4 6.78875 36.6593 -50.2368
4 9.50425 33.9438 -50.2368
4 9.50425 36.6593 -52.9522
4 10.862 32.586 -54.31
4 10.862 35.3015 -51.5945
4 13.5775 32.586 -51.5945
4 13.5775 35.3015 -54.31
4 12.2197 33.9438 -52.9522
4 12.2197 36.6593 -50.2368
4 14.9352 33.9438 -50.2368
4 14.9352 36.6593 -52.9522
4 16.293 32.586 -54.31
4 16.293 35.3015 -51.5945
4 19.0085 32.586 -51.5945
4 19.0085 35.3015 -54.31
4 17.6507 33.9438 -52.9522
4 17.6507 36.6593 -50.2368
4 20.3663 33.9438 -50.2368
4 20.3663 36.6593 -52.9522
4 21.724 32.586 -54.31
4 21.724 35.3015 -51.5945
4 24.4395 32.586 -51.5945
4 24.4395 35.3015 -54.31
4 23.0817 33.9438 -52.9522
4 23.0817 36.6593 -50.2368
4 25.7973 33.9438 -50.2368
4 25.7973 36.6593 -52.9522
4 27.155 32.586 -54.31
4 27.155 35.3015 -51.5945
4 29.8705 32.586 -51.5945
4 29.8705 35.3015 -54.31
4 28.5128 33.9438 -52.9522
4 28.5128 36.6593 -50.2368
4 31.2282 33.9438 -50.2368
4 31.2282 36.6593 -52.9522
4 32.586 32.586 -54.31
4 32.586 35.3015 -51.5945
4 35.3015 32.586 -51.5945
4 35.3015 35.3015 -54.31
4 33.9438 33.9438 -52.9522
4 33.9438 36.6593 -50.2368
4 36.6593 33.9438 -50.2368
4 36.6593 36.6593 -52.9522
4 38.017 32.586 -54.31
4 38.017 35.3015 -51.5945
4 40.7325 32.586 -51.5945
4 40.7325 35.3015 -54.31
4 39.3747 33.9438 -52.9522
4 39.3747 36.6593 -50.2368
4 42.0902 33.9438 -50.2368
4 42.0902 36.6593 -52.9522
4 43.448 32.586 -54.31
4 43.448 35.3015 -51.5945
4 46.1635 32.586 -51.5945
4 46.1635 35.3015 -54.31
4 44.8058 33.9438 -52.9522
4 44.8058 36.6593 -50.2368
4 47.5213 33.9438 -50.2368
4 47.5213 36.6593 -52.9522
4 48.879 32.586 -54.31
4 48.879 35.3015 -51.5945
4 51.5945 32.586 -51.5945
4 51.5945 35.3015 -54.31
4 50.2368 33.9438 -52.9522
4 50.2368 36.6593 -50.2368
4 52.9522 33.9438 -50.2368
4 52.9522 36.6593 -52.9522
4 0 38.017 -54.31
4 0 40.7325 -51.5945
4 2.7155 38.017 -51.5945
4 2.7155 40.7325 -54.31
4 1.35775 39.3747 -52.9522
4 1.35775 42.0902 -50.2368
4 4.07325 39.3747 -50.2368
4 4.07325 42.0902 -52.9522
4 5.431 38.017 -54.31
4 5.431 40.7325 -51.5945
4 8.1465 38.017 -51.5945
4 8.1465 40.7325 -54.31
4 6.78875 39.3747 -52.9522
4 6.78875 42.0902 -50.2368
4 9.50425 39.3747 -50.2368
4 9.50425 42.0902 -52.9522
4 10.862 38.017 -54.31
4 10.862 40.7325 -51.5945
4 13.5775 38.017 -51.5945
4 13.5775 40.7325 -54.31
4 12.2197 39.3747 -52.9522
4 12.2197 42.0902 -50.2368
4 14.9352 39.3747 -50.2368
4 14.9352 42.0902 -52.9522
4 16.293 38.017 -54.31
4 16.293 40.7325 -51.5945
4 19.0085 38.017 -51.5945
4 19.0085 40.7325 -54.31
4 17.6507 39.3747 -52.9522
4 17.6507 42.0902 -50.2368
4 20.3663 39.3747 -50.2368
4 20.3663 42.0902 -52.9522
4 21.724 38.017 -54.31
4 21.724 40.7325 -51.5945
4 24.4395 38.017 -51.5945
4 24.4395 40.7325 -54.31
4 23.0817 39.3747 -52.9522
4 23.0817 42.0902 -50.2368
4 25.7973 39.3747 -50.2368
4 25.7973 42.0902 -52.9522
4 27.155 38.017 -54.31
4 27.155 40.7325 -51.5945
4 29.8705 38.017 -51.5945
4 29.8705 40.7325 -54.31
4 28.5128 39.3747 -52.9522
4 28.5128 42.0902 -50.2368
4 31.2282 39.3747 -50.2368
4 31.2282 42.0902 -52.9522
4 32.586 38.017 -54.31
4 32.586 40.7325 -51.5945
4 35.3015 38.017 -51.5945
4 35.3015 40.7325 -54.31
4 33.9438 39.3747 -52.9522
4 33.9438 42.0902 -50.2368
4 36.6593 39.3747 -50.2368
4 36.6593 42.0902 -52.9522
4 38.017 38.017 -54.31
4 38.017 40.7325 -51.5945
4 40.7325 38.017 -51.5945
4 40.7325 40.7325 -54.31
4 39.3747 39.3747 -52.9522
4 39.3747 42.0902 -50.2368
4 42.0902 39.3747 -50.2368
4 42.0902 42.0902 -52.9522
4 43.448 38.017 -54.31
4 43.448 40.7325 -51.5945
4 46.1635 38.017 -51.5945
4 46.1635 40.7325 -54.31
4 44.8058 39.3747 -52.9522
4 44.8058 42.0902 -50.2368
4 47.5213 39.3747 -50.2368
4 47.5213 42.0902 -52.9522
4 48.879 38.017 -54.31
4 48.879 40.7325 -51.5945
4 51.5945 38.017 -51.5945
4 51.5945 40.7325 -54.31
4 50.2368 39.3747 -52.9522
4 50.2368 42.0902 -50.2368
4 52.9522 39.3747 -50.2368
4 52.9522 42.0902 -52.9522
4 0 43.448 -54.31
4 0 46.1635 -51.5945
4 2.7155 43.448 -51.5945
4 2.7155 46.1635 -54.31
4 1.35775 44.8058 -52.9522
4 1.35775 47.5213 -50.2368
4 4.07325 44.8058 -50.2368
4 4.07325 47.5213 -52.9522
4 5.431 43.448 -54.31
4 5.431 46.1635 -51.5945
4 8.1465 43.448 -51.5945
4 8.1465 46.1635 -54.31
4 6.78875 44.8058 -52.9522
4 6.78875 47.5213 -50.2368
4 9.50425 44.8058 -50.2368
4 9.50425 47.5213 -52.9522
4 10.862 43.448 -54.31
4 10.862 46.1635 -51.5945
4 13.5775 43.448 -51.5945
4 13.5775 46.1635 -54.31
4 12.2197 44.8058 -52.9522
4 12.2197 47.5213 -50.2368
4 14.9352 44.8058 -50.2368
4 14.9352 47.5213 -52.9522
4 16.293 43.448 -54.31
4 16.293 46.1635 -51.5945
4 19.0085 43.448 -51.5945
4 19.0085 46.1635 -54.31
4 17.6507 44.8058 -52.9522
4 17.6507 47.5213 -50.2368
4 20.3663 44.8058 -50.2368
4 20.3663 47.5213 -52.9522
4 21.724 43.448 -54.31
4 21.724 46.1635 -51.5945
4 24.4395 43.448 -51.5945
4 24.4395 46.1635 -54.31
4 23.0817 44.8058 -52.9522
4 23.0817 47.5213 -50.2368
4 25.7973 44.8058 -50.2368
4 25.7973 47.5213 -52.9522
4 27.155 43.448 -54.31
4 27.155 46.1635 -51.5945
4 29.8705 43.448 -51.5945
4 29.8705 46.1635 -54.31
4 28.5128 44.8058 -52.9522
4 28.5128 47.5213 -50.2368
4 31.2282 44.8058 -50.2368
4 31.2282 47.5213 -52.9522
4 32.586 43.448 -54.31
4 32.586 46.1635 -51.5945
4 35.3015 43.448 -51.5945
4 35.3015 46.1635 -54.31
4 33.9438 44.8058 -52.9522
4 33.9438 47.5213 -50.2368
4 36.6593 44.8058 -50.2368
4 36.6593 47.5213 -52.9522
4 38.017 43.448 -54.31
4 38.017 46.1635 -51.5945
4 40.7325 43.448 -51.5945
4 40.7325 46.1635 -54.31
4 39.3747 44.8058 -52.9522
4 39.3747 47.5213 -50.2368
4 42.0902 44.8058 -50.2368
4 42.0902 47.5213 -52.9522
4 43.448 43.448 -54.31
4 43.448 46.1635 -51.5945
4 46.1635 43.448 -51.5945
4 46.1635 46.1635 -54.31
4 44.8058 44.8058 -52.9522
4 44.8058 47.5213 -50.2368
4 47.5213 44.8058 -50.2368
4 47.5213 47.5213 -52.9522
4 48.879 43.448 -54.31
4 48.879 46.1635 -51.5945
4 51.5945 43.448 -51.5945
4 51.5945 46.1635 -54.31
4 50.2368 44.8058 -52.9522
4 50.2368 47.5213 -50.2368
4 52.9522 44.8058 -50.2368
4 52.9522 47.5213 -52.9522
4 0 48.879 -54.31
4 0 51.5945 -51.5945
4 2.7155 48.879 -51.5945
4 2.7155 51.5945 -54.31
4 1.35775 50.2368 -52.9522
4 1.35775 52.9522 -50.2368
4 4.07325 50.2368 -50.2368
4 4.07325 52.9522 -52.9522
4 5.431 48.879 -54.31
4 5.431 51.5945 -51.5945
4 8.1465 48.879 -51.5945
4 8.1465 51.5945 -54.31
4 6.78875 50.2368 -52.9522
4 6.78875 52.9522 -50.2368
4 9.50425 50.2368 -50.2368
4 9.50425 52.9522 -52.9522
4 10.862 48.879 -54.31
4 10.862 51.5945 -51.5945
4 13.5775 48.879 -51.5945
4 13.5775 51.5945 -54.31
4 12.2197 50.2368 -52.9522
4 12.2197 52.9522 -50.2368
4 14.9352 50.2368 -50.2368
4 14.9352 52.9522 -52.9522
4 16.293 48.879 -54.31
4 16.293 51.5945 -51.5945
4 19.0085 48.879 -51.5945
4 19.0085 51.5945 -54.31
4 17.6507 50.2368 -52.9522
4 17.6507 52.9522 -50.2368
4 20.3663 50.2368 -50.2368
4 20.3663 52.9522 -52.9522
4 21.724 48.879 -54.31
4 21.724 51.5945 -51.5945
4 24.4395 48.879 -51.5945
4 24.4395 51.5945 -54.31
4 23.0817 50.2368 -52.9522
4 23.0817 52.9522 -50.2368
4 25.7973 50.2368 -50.2368
4 25.7973 52.9522 -52.9522
4 27.155 48.879 -54.31
4 27.155 51.5945 -51.5945
4 29.8705 48.879 -51.5945
4 29.8705 51.5945 -54.31
4 28.5128 50.2368 -52.9522
4 28.5128 52.9522 -50.2368
4 31.2282 50.2368 -50.2368
4 31.2282 52.9522 -52.9522
4 32.586 48.879 -54.31
4 32.586 51.5945 -51.5945
4 35.3015 48.879 -51.5945
4 35.3015 51.5945 -54.31
4 33.9438 50.2368 -52.9522
4 33.9438 52.9522 -50.2368
4 36.6593 50.2368 -50.2368
4 36.6593 52.9522 -52.9522
4 38.017 48.879 -54.31
4 38.017 51.5945 -51.5945
4 40.7325 48.879 -51.5945
4 40.7325 51.5945 -54.31
4 39.3747 50.2368 -52.9522
4 39.3747 52.9522 -50.2368
4 42.0902 50.2368 -50.2368
4 42.0902 52.9522 -52.9522
4 43.448 48.879 -54.31
4 43.448 51.5945 -51.5945
4 46.1635 48.879 -51.5945
4 46.1635 51.5945 -54.31
4 44.8058 50.2368 -52.9522
4 44.8058 52.9522 -50.2368
4 47.5213 50.2368 -50.2368
4 47.5213 52.9522 -52.9522
4 48.879 48.879 -54.31
4 48.879 51.5945 -51.5945
4 51.5945 48.879 -51.5945
4 51.5945 51.5945 -54.31
4 50.2368 50.2368 -52.9522
4 50.2368 52.9522 -50.2368
4 52.9522 50.2368 -50.2368
4 52.9522 52.9522 -52.9522
4 0 0 -48.879
3 2.75165 0.0855171 -46.063
4 2.7155 2.7155 -48.879
4 1.35775 1.35775 -47.5213
3 1.37494 4.02012 -44.4714
3 4.0045 1.35927 -44.67
4 4.07325 4.07325 -47.5213
4 5.431 0 -48.879
3 5.42589 2.68507 -46.0814
3 8.18923 0.0846498 -46.0573
4 8.1465 2.7155 -48.879
4 6.78875 1.35775 -47.5213
3 6.84912 4.09123 -44.6988
3 9.58652 1.32806 -44.6636
4 9.50425 4.07325 -47.5213
4 10.862 0 -48.879
3 10.8505 2.74434 -46.0656
3 13.4755 54.2366 -46.0876
4 13.5775 2.7155 -48.879
4 12.2197 1.35775 -47.5213
3 12.3135 4.12086 -44.6552
3 14.8439 1.32817 -44.7578
4 14.9352 4.07325 -47.5213
4 16.293 0 -48.879
3 16.2799 2.77583 -46.025
1 18.9909 54.2915 -46.0845
4 19.0085 2.7155 -48.879
4 17.6507 1.35775 -47.5213
1 17.7327 4.09553 -44.6383
1 20.3405 1.36779 -44.7067
4 20.3663 4.07325 -47.5213
4 21.724 0 -48.879
1 21.7104 2.67109 -46.1093
1 24.5384 -0.00319532 -46.0981
4 24.4395 2.7155 -48.879
4 23.0817 1.35775 -47.5213
1 23.0043 4.04662 -44.7578
1 25.7766 1.3505 -44.6451
4 25.7973 4.07325 -47.5213
4 27.155 0 -48.879
1 27.1423 2.76372 -46.0855
1 29.8322 54.3198 -45.9912
4 29.8705 2.7155 -48.879
4 28.5128 1.35775 -47.5213
1 28.4695 4.06981 -44.6031
1 31.2569 1.31839 -44.5984
4 31.2282 4.07325 -47.5213
4 32.586 0 -48.879
1 32.5512 2.69168 -46.0973
1 35.368 -0.0620259 -46.0638
4 35.3015 2.7155 -48.879
4 33.9438 1.35775 -47.5213
1 33.8855 4.03239 -44.6505
1 36.5857 1.41888 -44.6149
4 36.6593 4.07325 -47.5213
4 38.017 0 -48.879
1 37.9727 2.74332 -46.0643
1 40.8004 54.3221 -46.0935
4 40.7325 2.7155 -48.879
4 39.3747 1.35775 -47.5213
1 39.3757 4.10771 -44.684
1 42.161 1.27514 -44.6217
4 42.0902 4.07325 -47.5213
4 43.448 0 -48.879
1 43.4547 2.71372 -46.0997
1 46.0591 54.3296 -45.9902
4 46.1635 2.7155 -48.879
4 44.8058 1.35775 -47.5213
1 44.8514 4.04316 -44.6778
1 47.4722 1.35766 -44.5971
4 47.5213 4.07325 -47.5213
4 48.879 0 -48.879
1 48.7732 2.65318 -46.1279
1 51.5878 0.000116506 -46.017
4 51.5945 2.7155 -48.879
4 50.2368 1.35775 -47.5213
1 50.0578 4.05136 -44.6243
1 52.8892 1.33605 -44.5797
4 52.9522 4.07325 -47.5213
4 0 5.431 -48.879
3 2.71412 5.43572 -46.0779
4 2.7155 8.1465 -48.879
4 1.35775 6.78875 -47.5213
3 1.47883 9.44053 -44.7176
3 4.0023 6.74884 -44.6056
4 4.07325 9.50425 -47.5213
4 5.431 5.431 -48.879
3 5.32728 8.13459 -46.0611
3 8.10474 5.4893 -46.1117
4 8.1465 8.1465 -48.879
4 6.78875 6.78875 -47.5213
3 6.74914 9.46874 -44.5985
3 9.47405 6.8579 -44.6251
4 9.50425 9.50425 -47.5213
4 10.862 5.431 -48.879
3 10.8622 8.22275 -46.0644
3 13.6399 5.41043 -46.0987
4 13.5775 8.1465 -48.879
4 12.2197 6.78875 -47.5213
3 12.2032 9.56716 -44.6773
3 14.8879 6.7145 -44.5971
4 14.9352 9.50425 -47.5213
4 16.293 5.431 -48.879
3 16.2241 8.12594 -46.0364
1 19.0253 5.46984 -46.0236
4 19.0085 8.1465 -48.879
4 17.6507 6.78875 -47.5213
1 17.6243 9.39873 -44.6142
1 20.3231 6.84301 -44.635
4 20.3663 9.50425 -47.5213
4 21.724 5.431 -48.879
1 21.7338 8.16885 -46.0835
1 24.4471 5.39141 -46.1303
4 24.4395 8.1465 -48.879
4 23.0817 6.78875 -47.5213
1 23.1005 9.50373 -44.6751
1 25.7494 6.80104 -44.7167
4 25.7973 9.50425 -47.5213
4 27.155 5.431 -48.879
1 27.1452 8.09945 -46.0656
1 29.8386 5.3712 -46.0738
4 29.8705 8.1465 -48.879
4 28.5128 6.78875 -47.5213
1 28.4994 9.47764 -44.6191
1 31.2171 6.77355 -44.7507
4 31.2282 9.50425 -47.5213
4 32.586 5.431 -48.879
1 32.5762 8.17712 -46.15
1 35.2679 5.35654 -46.0361
4 35.3015 8.1465 -48.879
4 33.9438 6.78875 -47.5213
1 33.9433 9.47992 -44.6367
1 36.6086 6.82411 -44.6223
4 36.6593 9.50425 -47.5213
4 38.017 5.431 -48.879
1 38.0232 8.26304 -46.0682
1 40.8566 5.45279 -46.0973
4 40.7325 8.1465 -48.879
4 39.3747 6.78875 -47.5213
1 39.3982 9.56587 -44.6193
1 42.042 6.78524 -44.5332
4 42.0902 9.50425 -47.5213
4 43.448 5.431 -48.879
1 43.4211 8.11567 -46.0742
1 46.2788 5.50403 -46.072
4 46.1635 8.1465 -48.879
4 44.8058 6.78875 -47.5213
1 44.7628 9.49809 -44.562
1 47.4927 6.85964 -44.5711
4 47.5213 9.50425 -47.5213
4 48.879 5.431 -48.879
1 48.8556 8.16527 -46.0986
1 51.5277 5.3374 -46.0766
4 51.5945 8.1465 -48.879
4 50.2368 6.78875 -47.5213
1 50.1094 9.50407 -44.5749
1 52.8067 6.64525 -44.4258
4 52.9522 9.50425 -47.5213
4 0 10.862 -48.879
3 2.78714 10.8376 -46.148
4 2.7155 13.5775 -48.879
4 1.35775 12.2197 -47.5213
3 1.4872 14.9648 -44.6684
3 4.12147 12.0959 -44.6249
4 4.07325 14.9352 -47.5213
4 5.431 10.862 -48.879
3 5.46525 13.5714 -45.9841
3 8.15736 10.8397 -46.0912
4 8.1465 13.5775 -48.879
4 6.78875 12.2197 -47.5213
3 6.78965 14.9517 -44.5652
3 9.56274 12.1237 -44.648
4 9.50425 14.9352 -47.5213
4 10.862 10.862 -48.879
3 10.8315 13.5787 -46.0359
3 13.6189 10.8807 -46.0547
4 13.5775 13.5775 -48.879
4 12.2197 12.2197 -47.5213
3 12.2252 14.9596 -44.7127
3 14.9023 12.2257 -44.6494
4 14.9352 14.9352 -47.5213
4 16.293 10.862 -48.879
3 16.3861 13.5936 -46.1107
1 18.9116 10.705 -46.0943
4 19.0085 13.5775 -48.879
4 17.6507 12.2197 -47.5213
1 17.611 14.91 -44.6652
1 20.2489 12.1213 -44.7611
4 20.3663 14.9352 -47.5213
4 21.724 10.862 -48.879
1 21.6494 13.489 -46.1174
1 24.4735 10.9401 -45.9719
4 24.4395 13.5775 -48.879
4 23.0817 12.2197 -47.5213
1 23.0206 14.8491 -44.6223
1 25.9157 12.2115 -44.5337
4 25.7973 14.9352 -47.5213
4 27.155 10.862 -48.879
1 27.1773 13.5696 -46.0298
1 29.8688 10.8268 -46.1121
4 29.8705 13.5775 -48.879
4 28.5128 12.2197 -47.5213
1 28.4696 14.8511 -44.5971
1 31.2302 12.1696 -44.6449
4 31.2282 14.9352 -47.5213
4 32.586 10.862 -48.879
1 32.5949 13.55 -46.0845
1 35.2439 10.8469 -46.0937
4 35.3015 13.5775 -48.879
4 33.9438 12.2197 -47.5213
1 33.9472 14.9519 -44.7006
1 36.5373 12.282 -44.6082
4 36.6593 14.9352 -47.5213
4 38.017 10.862 -48.879
1 37.9935 13.6229 -46.0458
1 40.8069 10.8438 -46.0406
4 40.7325 13.5775 -48.879
4 39.3747 12.2197 -47.5213
1 39.3867 14.9462 -44.654
1 42.1046 12.3397 -44.7461
4 42.0902 14.9352 -47.5213
4 43.448 10.862 -48.879
1 43.451 13.662 -46.1514
1 46.2104 10.8746 -45.9787
4 46.1635 13.5775 -48.879
4 44.8058 12.2197 -47.5213
1 44.8668 14.8561 -44.6894
1 47.5229 12.2713 -44.6926
4 47.5213 14.9352 -47.5213
4 48.879 10.862 -48.879
1 48.9276 13.5025 -46.0858
1 51.4842 10.786 -46.0247
4 51.5945 13.5775 -48.879
4 50.2368 12.2197 -47.5213
1 50.3026 14.8781 -44.6068
1 52.8143 12.1891 -44.7247
4 52.9522 14.9352 -47.5213
4 0 16.293 -48.879
3 2.70801 16.338 -46.0875
4 2.7155 19.0085 -48.879
4 1.35775 17.6507 -47.5213
3 1.37709 20.2508 -44.6027
3 4.17016 17.6358 -44.5621
4 4.07325 20.3663 -47.5213
4 5.431 16.293 -48.879
3 5.38837 19.0604 -46.0755
3 8.09781 16.3502 -46.0881
4 8.1465 19.0085 -48.879
4 6.78875 17.6507 -47.5213
3 6.78568 20.3245 -44.6271
3 9.46072 17.681 -44.6034
4 9.50425 20.3663 -47.5213
4 10.862 16.293 -48.879
3 10.8715 18.9988 -46.0336
3 13.5634 16.3001 -46.1639
4 13.5775 19.0085 -48.879
4 12.2197 17.6507 -47.5213
3 12.2058 20.425 -44.5887
3 14.9614 17.713 -44.6167
4 14.9352 20.3663 -47.5213
4 16.293 16.293 -48.879
3 16.255 18.9973 -46.1455
1 18.9517 16.2534 -46.1019
4 19.0085 19.0085 -48.879
4 17.6507 17.6507 -47.5213
1 17.6797 20.355 -44.7198
1 20.3114 17.5772 -44.6276
4 20.3663 20.3663 -47.5213
4 21.724 16.293 -48.879
1 21.6459 18.9673 -46.1228
1 24.4461 16.2116 -46.0982
4 24.4395 19.0085 -48.879
4 23.0817 17.6507 -47.5213
1 23.0288 20.3592 -44.7457
1 25.7551 17.6344 -44.589
4 25.7973 20.3663 -47.5213
4 27.155 16.293 -48.879
1 27.1605 18.9493 -46.0788
1 29.7542 16.2734 -46.0643
4 29.8705 19.0085 -48.879
4 28.5128 17.6507 -47.5213
1 28.5408 20.375 -44.7204
1 31.1493 17.6203 -44.6841
4 31.2282 20.3663 -47.5213
4 32.586 16.293 -48.879
1 32.5376 18.9267 -46.099
1 35.3006 16.3501 -46.1283
4 35.3015 19.0085 -48.879
4 33.9438 17.6507 -47.5213
1 33.8905 20.3666 -44.665
1 36.6807 17.6706 -44.7351
4 36.6593 20.3663 -47.5213
4 38.017 16.293 -48.879
1 38.0185 19.0241 -46.0888
1 40.7083 16.2626 -46.1293
4 40.7325 19.0085 -48.879
4 39.3747 17.6507 -47.5213
1 39.4681 20.2692 -44.6834
1 42.0211 17.5881 -44.6335
4 42.0902 20.3663 -47.5213
4 43.448 16.293 -48.879
1 43.4264 18.9666 -46.0855
1 46.2652 16.3469 -46.0615
4 46.1635 19.0085 -48.879
4 44.8058 17.6507 -47.5213
1 44.8195 20.3202 -44.669
1 47.7201 17.6066 -44.6852
4 47.5213 20.3663 -47.5213
4 48.879 16.293 -48.879
1 48.9759 19.0064 -46.1671
1 51.5845 16.2373 -46.1151
4 51.5945 19.0085 -48.879
4 50.2368 17.6507 -47.5213
1 50.1401 20.3517 -44.6143
1 52.9168 17.5866 -44.6185
4 52.9522 20.3663 -47.5213
4 0 21.724 -48.879
3 2.72821 21.8072 -46.0556
4 2.7155 24.4395 -48.879
4 1.35775 23.0817 -47.5213
3 1.38268 25.9787 -44.5914
3 4.01477 23.2334 -44.6071
4 4.07325 25.7973 -47.5213
4 5.431 21.724 -48.879
3 5.42384 24.4794 -46.1562
3 8.135 21.7365 -46.0273
4 8.1465 24.4395 -48.879
4 6.78875 23.0817 -47.5213
3 6.7701 25.8841 -44.6285
3 9.54421 23.0702 -44.5852
4 9.50425 25.7973 -47.5213
4 10.862 21.724 -48.879
3 10.7981 24.4706 -46.0507
3 13.6116 21.7808 -46.0658
4 13.5775 24.4395 -48.879
4 12.2197 23.0817 -47.5213
3 12.1641 25.842 -44.7655
3 14.9496 23.1882 -44.7336
4 14.9352 25.7973 -47.5213
4 16.293 21.724 -48.879
3 16.3231 24.5073 -46.1311
1 18.9695 21.7088 -46.1355
4 19.0085 24.4395 -48.879
4 17.6507 23.0817 -47.5213
1 17.6677 25.7809 -44.6357
1 20.4584 23.1182 -44.7291
4 20.3663 25.7973 -47.5213
4 21.724 21.724 -48.879
1 21.7207 24.4401 -46.1761
1 24.3633 21.7105 -46.09
4 24.4395 24.4395 -48.879
4 23.0817 23.0817 -47.5213
1 23.14 25.747 -44.7211
1 25.7834 22.9857 -44.7297
4 25.7973 25.7973 -47.5213
4 27.155 21.724 -48.879
1 27.117 24.4747 -46.1262
1 29.8506 21.6962 -46.1525
4 29.8705 24.4395 -48.879
4 28.5128 23.0817 -47.5213
1 28.5736 25.7774 -44.6736
1 31.1938 23.1268 -44.7262
4 31.2282 25.7973 -47.5213
4 32.586 21.724 -48.879