13468
 Atoms. Timestep: 145000
4 0 0 -54.31
4 0 2.7155 -51.5945
4 2.7155 0 -51.5945
4 2.7155 2.7155 -54.31
4 1.35775 1.35775 -52.9522
4 1.35775 4.07325 -50.2368
4 4.07325 1.35775 -50.2368
4 4.07325 4.07325 -52.9522
4 5.431 0 -54.31
4 5.431 2.7155 -51.5945
4 8.1465 0 -51.5945
4 8.1465 2.7155 -54.31
4 6.78875 1.35775 -52.9522
4 6.78875 4.07325 -50.2368
4 9.50425 1.35775 -50.2368
4 9.50425 4.07325 -52.9522
4 10.862 0 -54.31
4 10.862 2.7155 -51.5945
4 13.5775 0 -51.5945
4 13.5775 2.7155 -54.31
4 12.2197 1.35775 -52.9522
4 12.2197 4.07325 -50.2368
4 14.9352 1.35775 -50.2368
4 14.9352 4.07325 -52.9522
4 16.293 0 -54.31
4 16.293 2.7155 -51.5945
4 19.0085 0 -51.5945
4 19.0085 2.7155 -54.31
4 17.6507 1.35775 -52.9522
4 17.6507 4.07325 -50.2368
4 20.3663 1.35775 -50.2368
4 20.3663 4.07325 -52.9522
4 21.724 0 -54.31
4 21.724 2.7155 -51.5945
4 24.4395 0 -51.5945
4 24.4395 2.7155 -54.31
4 23.0817 1.35775 -52.9522
4 23.0817 4.07325 -50.2368
4 25.7973 1.35775 -50.2368
4 25.7973 4.07325 -52.9522
4 27.155 0 -54.31
4 27.155 2.7155 -51.5945
4 29.8705 0 -51.5945
4 29.8705 2.7155 -54.31
4 28.5128 1.35775 -52.9522
4 28.5128 4.07325 -50.2368
4 31.2282 1.35775 -50.2368
4 31.2282 4.07325 -52.9522
4 32.586 0 -54.31
4 32.586 2.7155 -51.5945
4 35.3015 0 -51.5945
4 35.3015 2.7155 -54.31
4 33.9438 1.35775 -52.9522
4 33.9438 4.07325 -50.2368
4 36.6593 1.35775 -50.2368
4 36.6593 4.07325 -52.9522
4 38.017 0 -54.31
4 38.017 2.7155 -51.5945
4 40.7325 0 -51.5945
4 40.7325 2.7155 -54.31
4 39.3747 1.35775 -52.9522
4 39.3747 4.07325 -50.2368
4 42.0902 1.35775 -50.2368
4 42.0902 4.07325 -52.9522
4 43.448 0 -54.31
4 43.448 2.7155 -51.5945
4 46.1635 0 -51.5945
4 46.1635 2.7155 -54.31
4 44.8058 1.35775 -52.9522
4 44.8058 4.07325 -50.2368
4 47.5213 1.35775 -50.2368
4 47.5213 4.07325 -52.9522
4 48.879 0 -54.31
4 48.879 2.7155 -51.5945
4 51.5945 0 -51.5945
4 51.5945 2.7155 -54.31
4 50.2368 1.35775 -52.9522
4 50.2368 4.07325 -50.2368
4 52.9522 1.35775 -50.2368
4 52.9522 4.07325 -52.9522
4 0 5.431 -54.31
4 0 8.1465 -51.5945
4 2.7155 5.431 -51.5945
4 2.7155 8.1465 -54.31
4 1.35775 6.78875 -52.9522
4 1.35775 9.50425 -50.2368
4 4.07325 6.78875 -50.2368
4 4.07325 9.50425 -52.9522
4 5.431 5.431 -54.31
4 5.431 8.1465 -51.5945
4 8.1465 5.431 -51.5945
4 8.1465 8.1465 -54.31
4 6.78875 6.78875 -52.9522
4 6.78875 9.50425 -50.2368
4 9.50425 6.78875 -50.2368
4 9.50425 9.50425 -52.9522
4 10.862 5.431 -54.31
4 10.862 8.1465 -51.5945
4 13.5775 5.431 -51.5945
4 13.5775 8.1465 -54.31
4 12.2197 6.78875 -52.9522
4 12.2197 9.50425 -50.2368
4 14.9352 6.78875 -50.2368
4 14.9352 9.50425 -52.9522
4 16.293 5.431 -54.31
4 16.293 8.1465 -51.5945
4 19.0085 5.431 -51.5945
4 19.0085 8.1465 -54.31
4 17.6507 6.78875 -52.9522
4 17.6507 9.50425 -50.2368
4 20.3663 6.78875 -50.2368
4 20.3663 9.50425 -52.9522
4 21.724 5.431 -54.31
4 21.724 8.1465 -51.5945
4 24.4395 5.431 -51.5945
4 24.4395 8.1465 -54.31
4 23.0817 6.78875 -52.9522
4 23.0817 9.50425 -50.2368
4 25.7973 6.78875 -50.2368
4 25.7973 9.50425 -52.9522
4 27.155 5.431 -54.31
4 27.155 8.1465 -51.5945
4 29.8705 5.431 -51.5945
4 29.8705 8.1465 -54.31
4 28.5128 6.78875 -52.9522
4 28.5128 9.50425 -50.2368
4 31.2282 6.78875 -50.2368
4 31.2282 9.50425 -52.9522
4 32.586 5.431 -54.31
4 32.586 8.1465 -51.5945
4 35.3015 5.431 -51.5945
4 35.3015 8.1465 -54.31
4 33.9438 6.78875 -52.9522
4 33.9438 9.50425 -50.2368
4 36.6593 6.78875 -50.2368
4 36.6593 9.50425 -52.9522
4 38.017 5.431 -54.31
4 38.017 8.1465 -51.5945
4 40.7325 5.431 -51.5945
4 40.7325 8.1465 -54.31
4 39.3747 6.78875 -52.9522
4 39.3747 9.50425 -50.2368
4 42.0902 6.78875 -50.2368
4 42.0902 9.50425 -52.9522
4 43.448 5.431 -54.31
4 43.448 8.1465 -51.5945
4 46.1635 5.431 -51.5945
4 46.1635 8.1465 -54.31
4 44.8058 6.78875 -52.9522
4 44.8058 9.50425 -50.2368
4 47.5213 6.78875 -50.2368
4 47.5213 9.50425 -52.9522
4 48.879 5.431 -54.31
4 48.879 8.1465 -51.5945
4 51.5945 5.431 -51.5945
4 51.5945 8.1465 -54.31
4 50.2368 6.78875 -52.9522
4 50.2368 9.50425 -50.2368
4 52.9522 6.78875 -50.2368
4 52.9522 9.50425 -52.9522
4 0 10.862 -54.31
4 0 13.5775 -51.5945
4 2.7155 10.862 -51.5945
4 2.7155 13.5775 -54.31
4 1.35775 12.2197 -52.9522
4 1.35775 14.9352 -50.2368
4 4.07325 12.2197 -50.2368
4 4.07325 14.9352 -52.9522
4 5.431 10.862 -54.31
4 5.431 13.5775 -51.5945
4 8.1465 10.862 -51.5945
4 8.1465 13.5775 -54.31
4 6.78875 12.2197 -52.9522
4 6.78875 14.9352 -50.2368
4 9.50425 12.2197 -50.2368
4 9.50425 14.9352 -52.9522
4 10.862 10.862 -54.31
4 10.862 13.5775 -51.5945
4 13.5775 10.862 -51.5945
4 13.5775 13.5775 -54.31
4 12.2197 12.2197 -52.9522
4 12.2197 14.9352 -50.2368
4 14.9352 12.2197 -50.2368
4 14.9352 14.9352 -52.9522
4 16.293 10.862 -54.31
4 16.293 13.5775 -51.5945
4 19.0085 10.862 -51.5945
4 19.0085 13.5775 -54.31
4 17.6507 12.2197 -52.9522
4 17.6507 14.9352 -50.2368
4 20.3663 12.2197 -50.2368
4 20.3663 14.9352 -52.9522
4 21.724 10.862 -54.31
4 21.724 13.5775 -51.5945
4 24.4395 10.862 -51.5945
4 24.4395 13.5775 -54.31
4 23.0817 12.2197 -52.9522
4 23.0817 14.9352 -50.2368
4 25.7973 12.2197 -50.2368
4 25.7973 14.9352 -52.9522
4 27.155 10.862 -54.31
4 27.155 13.5775 -51.5945
4 29.8705 10.862 -51.5945
4 29.8705 13.5775 -54.31
4 28.5128 12.2197 -52.9522
4 28.5128 14.9352 -50.2368
4 31.2282 12.2197 -50.2368
4 31.2282 14.9352 -52.9522
4 32.586 10.862 -54.31
4 32.586 13.5775 -51.5945
4 35.3015 10.862 -51.5945
4 35.3015 13.5775 -54.31
4 33.9438 12.2197 -52.9522
4 33.9438 14.9352 -50.2368
4 36.6593 12.2197 -50.2368
4 36.6593 14.9352 -52.9522
4 38.017 10.862 -54.31
4 38.017 13.5775 -51.5945
4 40.7325 10.862 -51.5945
4 40.7325 13.5775 -54.31
4 39.3747 12.2197 -52.9522
4 39.3747 14.9352 -50.2368
4 42.0902 12.2197 -50.2368
4 42.0902 14.9352 -52.9522
4 43.448 10.862 -54.31
4 43.448 13.5775 -51.5945
4 46.1635 10.862 -51.5945
4 46.1635 13.5775 -54.31
4 44.8058 12.2197 -52.9522
4 44.8058 14.9352 -50.2368
4 47.5213 12.2197 -50.2368
4 47.5213 14.9352 -52.9522
4 48.879 10.862 -54.31
4 48.879 13.5775 -51.5945
4 51.5945 10.862 -51.5945
4 51.5945 13.5775 -54.31
4 50.2368 12.2197 -52.9522
4 50.2368 14.9352 -50.2368
4 52.9522 12.2197 -50.2368
4 52.9522 14.9352 -52.9522
4 0 16.293 -54.31
4 0 19.0085 -51.5945
4 2.7155 16.293 -51.5945
4 2.7155 19.0085 -54.31
4 1.35775 17.6507 -52.9522
4 1.35775 20.3663 -50.2368
4 4.07325 17.6507 -50.2368
4 4.07325 20.3663 -52.9522
4 5.431 16.293 -54.31
4 5.431 19.0085 -51.5945
4 8.1465 16.293 -51.5945
4 8.1465 19.0085 -54.31
4 6.78875 17.6507 -52.9522
4 6.78875 20.3663 -50.2368
4 9.50425 17.6507 -50.2368
4 9.50425 20.3663 -52.9522
4 10.862 16.293 -54.31
4 10.862 19.0085 -51.5945
4 13.5775 16.293 -51.5945
4 13.5775 19.0085 -54.31
4 12.2197 17.6507 -52.9522
4 12.2197 20.3663 -50.2368
4 14.9352 17.6507 -50.2368
4 14.9352 20.3663 -52.9522
4 16.293 16.293 -54.31
4 16.293 19.0085 -51.5945
4 19.0085 16.293 -51.5945
4 19.0085 19.0085 -54.31
4 17.6507 17.6507 -52.9522
4 17.6507 20.3663 -50.2368
4 20.3663 17.6507 -50.2368
4 20.3663 20.3663 -52.9522
4 21.724 16.293 -54.31
4 21.724 19.0085 -51.5945
4 24.4395 16.293 -51.5945
4 24.4395 19.0085 -54.31
4 23.0817 17.6507 -52.9522
4 23.0817 20.3663 -50.2368
4 25.7973 17.6507 -50.2368
4 25.7973 20.3663 -52.9522
4 27.155 16.293 -54.31
4 27.155 19.0085 -51.5945
4 29.8705 16.293 -51.5945
4 29.8705 19.0085 -54.31
4 28.5128 17.6507 -52.9522
4 28.5128 20.3663 -50.2368
4 31.2282 17.6507 -50.2368
4 31.2282 20.3663 -52.9522
4 32.586 16.293 -54.31
4 32.586 19.0085 -51.5945
4 35.3015 16.293 -51.5945
4 35.3015 19.0085 -54.31
4 33.9438 17.6507 -52.9522
4 33.9438 20.3663 -50.2368
4 36.6593 17.6507 -50.2368
4 36.6593 20.3663 -52.9522
4 38.017 16.293 -54.31
4 38.017 19.0085 -51.5945
4 40.7325 16.293 -51.5945
4 40.7325 19.0085 -54.31
4 39.3747 17.6507 -52.9522
4 39.3747 20.3663 -50.2368
4 42.0902 17.6507 -50.2368
4 42.0902 20.3663 -52.9522
4 43.448 16.293 -54.31
4 43.448 19.0085 -51.5945
4 46.1635 16.293 -51.5945
4 46.1635 19.0085 -54.31
4 44.8058 17.6507 -52.9522
4 44.8058 20.3663 -50.2368
4 47.5213 17.6507 -50.2368
4 47.5213 20.3663 -52.9522
4 48.879 16.293 -54.31
4 48.879 19.0085 -51.5945
4 51.5945 16.293 -51.5945
4 51.5945 19.0085 -54.31
4 50.2368 17.6507 -52.9522
4 50.2368 20.3663 -50.2368
4 52.9522 17.6507 -50.2368
4 52.9522 20.3663 -52.9522
4 0 21.724 -54.31
4 0 24.4395 -51.5945
4 2.7155 21.724 -51.5945
4 2.7155 24.4395 -54.31
4 1.35775 23.0817 -52.9522
4 1.35775 25.7973 -50.2368
4 4.07325 23.0817 -50.2368
4 4.07325 25.7973 -52.9522
4 5.431 21.724 -54.31
4 5.431 24.4395 -51.5945
4 8.1465 21.724 -51.5945
4 8.1465 24.4395 -54.31
4 6.78875 23.0817 -52.9522
4 6.78875 25.7973 -50.2368
4 9.50425 23.0817 -50.2368
4 9.50425 25.7973 -52.9522
4 10.862 21.724 -54.31
4 10.862 24.4395 -51.5945
4 13.5775 21.724 -51.5945
4 13.5775 24.4395 -54.31
4 12.2197 23.0817 -52.9522
4 12.2197 25.7973 -50.2368
4 14.9352 23.0817 -50.2368
4 14.9352 25.7973 -52.9522
4 16.293 21.724 -54.31
4 16.293 24.4395 -51.5945
4 19.0085 21.724 -51.5945
4 19.0085 24.4395 -54.31
4 17.6507 23.0817 -52.9522
4 17.6507 25.7973 -50.2368
4 20.3663 23.0817 -50.2368
4 20.3663 25.7973 -52.9522
4 21.724 21.724 -54.31
4 21.724 24.4395 -51.5945
4 24.4395 21.724 -51.5945
4 24.4395 24.4395 -54.31
4 23.0817 23.0817 -52.9522
4 23.0817 25.7973 -50.2368
4 25.7973 23.0817 -50.2368
4 25.7973 25.7973 -52.9522
4 27.155 21.724 -54.31
4 27.155 24.4395 -51.5945
4 29.8705 21.724 -51.5945
4 29.8705 24.4395 -54.31
4 28.5128 23.0817 -52.9522
4 28.5128 25.7973 -50.2368
4 31.2282 23.0817 -50.2368
4 31.2282 25.7973 -52.9522
4 32.586 21.724 -54.31
4 32.586 24.4395 -51.5945
4 35.3015 21.724 -51.5945
4 35.3015 24.4395 -54.31
4 33.9438 23.0817 -52.9522
4 33.9438 25.7973 -50.2368
4 36.6593 23.0817 -50.2368
4 36.6593 25.7973 -52.9522
4 38.017 21.724 -54.31
4 38.017 24.4395 -51.5945
4 40.7325 21.724 -51.5945
4 40.7325 24.4395 -54.31
4 39.3747 23.0817 -52.9522
4 39.3747 25.7973 -50.2368
4 42.0902 23.0817 -50.2368
4 42.0902 25.7973 -52.9522
4 43.448 21.724 -54.31
4 43.448 24.4395 -51.5945
4 46.1635 21.724 -51.5945
4 46.1635 24.4395 -54.31
4 44.8058 23.0817 -52.9522
4 44.8058 25.7973 -50.2368
4 47.5213 23.0817 -50.2368
4 47.5213 25.7973 -52.9522
4 48.879 21.724 -54.31
4 48.879 24.4395 -51.5945
4 51.5945 21.724 -51.5945
4 51.5945 24.4395 -54.31
4 50.2368 23.0817 -52.9522
4 50.2368 25.7973 -50.2368
4 52.9522 23.0817 -50.2368
4 52.9522 25.7973 -52.9522
4 0 27.155 -54.31
4 0 29.8705 -51.5945
4 2.7155 27.155 -51.5945
4 2.7155 29.8705 -54.31
4 1.35775 28.5128 -52.9522
4 1.35775 31.2282 -50.2368
4 4.07325 28.5128 -50.2368
4 4.07325 31.2282 -52.9522
4 5.431 27.155 -54.31
4 5.431 29.8705 -51.5945
4 8.1465 27.155 -51.5945
4 8.1465 29.8705 -54.31
4 6.78875 28.5128 -52.9522
4 6.78875 31.2282 -50.2368
4 9.50425 28.5128 -50.2368
4 9.50425 31.2282 -52.9522
4 10.862 27.155 -54.31
4 10.862 29.8705 -51.5945
4 13.5775 27.155 -51.5945
4 13.5775 29.8705 -54.31
4 12.2197 28.5128 -52.9522
4 12.2197 31.2282 -50.2368
4 14.9352 28.5128 -50.2368
4 14.9352 31.2282 -52.9522
4 16.293 27.155 -54.31
4 16.293 29.8705 -51.5945
4 19.0085 27.155 -51.5945
4 19.0085 29.8705 -54.31
4 17.6507 28.5128 -52.9522
4 17.6507 31.2282 -50.2368
4 20.3663 28.5128 -50.2368
4 20.3663 31.2282 -52.9522
4 21.724 27.155 -54.31
4 21.724 29.8705 -51.5945
4 24.4395 27.155 -51.5945
4 24.4395 29.8705 -54.31
4 23.0817 28.5128 -52.9522
4 23.0817 31.2282 -50.2368
4 25.7973 28.5128 -50.2368
4 25.7973 31.2282 -52.9522
4 27.155 27.155 -54.31
4 27.155 29.8705 -51.5945
4 29.8705 27.155 -51.5945
4 29.8705 29.8705 -54.31
4 28.5128 28.5128 -52.9522
4 28.5128 31.2282 -50.2368
4 31.2282 28.5128 -50.2368
4 31.2282 31.2282 -52.9522
4 32.586 27.155 -54.31
4 32.586 29.8705 -51.5945
4 35.3015 27.155 -51.5945
4 35.3015 29.8705 -54.31
4 33.9438 28.5128 -52.9522
4 33.9438 31.2282 -50.2368
4 36.6593 28.5128 -50.2368
4 36.6593 31.2282 -52.9522
4 38.017 27.155 -54.31
4 38.017 29.8705 -51.5945
4 40.7325 27.155 -51.5945
4 40.7325 29.8705 -54.31
4 39.3747 28.5128 -52.9522
4 39.3747 31.2282 -50.2368
4 42.0902 28.5128 -50.2368
4 42.0902 31.2282 -52.9522
4 43.448 27.155 -54.31
4 43.448 29.8705 -51.5945
4 46.1635 27.155 -51.5945
4 46.1635 29.8705 -54.31
4 44.8058 28.5128 -52.9522
4 44.8058 31.2282 -50.2368
4 47.5213 28.5128 -50.2368
4 47.5213 31.2282 -52.9522
4 48.879 27.155 -54.31
4 48.879 29.8705 -51.5945
4 51.5945 27.155 -51.5945
4 51.5945 29.8705 -54.31
4 50.2368 28.5128 -52.9522
4 50.2368 31.2282 -50.2368
4 52.9522 28.5128 -50.2368
4 52.9522 31.2282 -52.9522
4 0 32.586 -54.31
4 0 35.3015 -51.5945
4 2.7155 32.586 -51.5945
4 2.7155 35.3015 -54.31
4 1.35775 33.9438 -52.9522
4 1.35775 36.6593 -50.2368
4 4.07325 33.9438 -50.2368
4 4.07325 36.6593 -52.9522
4 5.431 32.586 -54.31
4 5.431 35.3015 -51.5945
4 8.1465 32.586 -51.5945
4 8.1465 35.3015 -54.31
4 6.78875 33.9438 -52.9522
4 6.78875 36.6593 -50.2368
4 9.50425 33.9438 -50.2368
4 9.50425 36.6593 -52.9522
4 10.862 32.586 -54.31
4 10.862 35.3015 -51.5945
4 13.5775 32.586 -51.5945
4 13.5775 35.3015 -54.31
4 12.2197 33.9438 -52.9522
4 12.2197 36.6593 -50.2368
4 14.9352 33.9438 -50.2368
4 14.9352 36.6593 -52.9522
4 16.293 32.586 -54.31
4 16.293 35.3015 -51.5945
4 19.0085 32.586 -51.5945
4 19.0085 35.3015 -54.31
4 17.6507 33.9438 -52.9522
4 17.6507 36.6593 -50.2368
4 20.3663 33.9438 -50.2368
4 20.3663 36.6593 -52.9522
4 21.724 32.586 -54.31
4 21.724 35.3015 -51.5945
4 24.4395 32.586 -51.5945
4 24.4395 35.3015 -54.31
4 23.0817 33.9438 -52.9522
4 23.0817 36.6593 -50.2368
4 25.7973 33.9438 -50.2368
4 25.7973 36.6593 -52.9522
4 27.155 32.586 -54.31
4 27.155 35.3015 -51.5945
4 29.8705 32.586 -51.5945
4 29.8705 35.3015 -54.31
4 28.5128 33.9438 -52.9522
4 28.5128 36.6593 -50.2368
4 31.2282 33.9438 -50.2368
4 31.2282 36.6593 -52.9522
4 32.586 32.586 -54.31
4 32.586 35.3015 -51.5945
4 35.3015 32.586 -51.5945
4 35.3015 35.3015 -54.31
4 33.9438 33.9438 -52.9522
4 33.9438 36.6593 -50.2368
4 36.6593 33.9438 -50.2368
4 36.6593 36.6593 -52.9522
4 38.017 32.586 -54.31
4 38.017 35.3015 -51.5945
4 40.7325 32.586 -51.5945
4 40.7325 35.3015 -54.31
4 39.3747 33.9438 -52.9522
4 39.3747 36.6593 -50.2368
4 42.0902 33.9438 -50.2368
4 42.0902 36.6593 -52.9522
4 43.448 32.586 -54.31
4 43.448 35.3015 -51.5945
4 46.1635 32.586 -51.5945
4 46.1635 35.3015 -54.31
4 44.8058 33.9438 -52.9522
4 44.8058 36.6593 -50.2368
4 47.5213 33.9438 -50.2368
4 47.5213 36.6593 -52.9522
4 48.879 32.586 -54.31
4 48.879 35.3015 -51.5945
4 51.5945 32.586 -51.5945
4 51.5945 35.3015 -54.31
4 50.2368 33.9438 -52.9522
4 50.2368 36.6593 -50.2368
4 52.9522 33.9438 -50.2368
4 52.9522 36.6593 -52.9522
4 0 38.017 -54.31
4 0 40.7325 -51.5945
4 2.7155 38.017 -51.5945
4 2.7155 40.7325 -54.31
4 1.35775 39.3747 -52.9522
4 1.35775 42.0902 -50.2368
4 4.07325 39.3747 -50.2368
4 4.07325 42.0902 -52.9522
4 5.431 38.017 -54.31
4 5.431 40.7325 -51.5945
4 8.1465 38.017 -51.5945
4 8.1465 40.7325 -54.31
4 6.78875 39.3747 -52.9522
4 6.78875 42.0902 -50.2368
4 9.50425 39.3747 -50.2368
4 9.50425 42.0902 -52.9522
4 10.862 38.017 -54.31
4 10.862 40.7325 -51.5945
4 13.5775 38.017 -51.5945
4 13.5775 40.7325 -54.31
4 12.2197 39.3747 -52.9522
4 12.2197 42.0902 -50.2368
4 14.9352 39.3747 -50.2368
4 14.9352 42.0902 -52.9522
4 16.293 38.017 -54.31
4 16.293 40.7325 -51.5945
4 19.0085 38.017 -51.5945
4 19.0085 40.7325 -54.31
4 17.6507 39.3747 -52.9522
4 17.6507 42.0902 -50.2368
4 20.3663 39.3747 -50.2368
4 20.3663 42.0902 -52.9522
4 21.724 38.017 -54.31
4 21.724 40.7325 -51.5945
4 24.4395 38.017 -51.5945
4 24.4395 40.7325 -54.31
4 23.0817 39.3747 -52.9522
4 23.0817 42.0902 -50.2368
4 25.7973 39.3747 -50.2368
4 25.7973 42.0902 -52.9522
4 27.155 38.017 -54.31
4 27.155 40.7325 -51.5945
4 29.8705 38.017 -51.5945
4 29.8705 40.7325 -54.31
4 28.5128 39.3747 -52.9522
4 28.5128 42.0902 -50.2368
4 31.2282 39.3747 -50.2368
4 31.2282 42.0902 -52.9522
4 32.586 38.017 -54.31
4 32.586 40.7325 -51.5945
4 35.3015 38.017 -51.5945
4 35.3015 40.7325 -54.31
4 33.9438 39.3747 -52.9522
4 33.9438 42.0902 -50.2368
4 36.6593 39.3747 -50.2368
4 36.6593 42.0902 -52.9522
4 38.017 38.017 -54.31
4 38.017 40.7325 -51.5945
4 40.7325 38.017 -51.5945
4 40.7325 40.7325 -54.31
4 39.3747 39.3747 -52.9522
4 39.3747 42.0902 -50.2368
4 42.0902 39.3747 -50.2368
4 42.0902 42.0902 -52.9522
4 43.448 38.017 -54.31
4 43.448 40.7325 -51.5945
4 46.1635 38.017 -51.5945
4 46.1635 40.7325 -54.31
4 44.8058 39.3747 -52.9522
4 44.8058 42.0902 -50.2368
4 47.5213 39.3747 -50.2368
4 47.5213 42.0902 -52.9522
4 48.879 38.017 -54.31
4 48.879 40.7325 -51.5945
4 51.5945 38.017 -51.5945
4 51.5945 40.7325 -54.31
4 50.2368 39.3747 -52.9522
4 50.2368 42.0902 -50.2368
4 52.9522 39.3747 -50.2368
4 52.9522 42.0902 -52.9522
4 0 43.448 -54.31
4 0 46.1635 -51.5945
4 2.7155 43.448 -51.5945
4 2.7155 46.1635 -54.31
4 1.35775 44.8058 -52.9522
4 1.35775 47.5213 -50.2368
4 4.07325 44.8058 -50.2368
4 4.07325 47.5213 -52.9522
4 5.431 43.448 -54.31
4 5.431 46.1635 -51.5945
4 8.1465 43.448 -51.5945
4 8.1465 46.1635 -54.31
4 6.78875 44.8058 -52.9522
4 6.78875 47.5213 -50.2368
4 9.50425 44.8058 -50.2368
4 9.50425 47.5213 -52.9522
4 10.862 43.448 -54.31
4 10.862 46.1635 -51.5945
4 13.5775 43.448 -51.5945
4 13.5775 46.1635 -54.31
4 12.2197 44.8058 -52.9522
4 12.2197 47.5213 -50.2368
4 14.9352 44.8058 -50.2368
4 14.9352 47.5213 -52.9522
4 16.293 43.448 -54.31
4 16.293 46.1635 -51.5945
4 19.0085 43.448 -51.5945
4 19.0085 46.1635 -54.31
4 17.6507 44.8058 -52.9522
4 17.6507 47.5213 -50.2368
4 20.3663 44.8058 -50.2368
4 20.3663 47.5213 -52.9522
4 21.724 43.448 -54.31
4 21.724 46.1635 -51.5945
4 24.4395 43.448 -51.5945
4 24.4395 46.1635 -54.31
4 23.0817 44.8058 -52.9522
4 23.0817 47.5213 -50.2368
4 25.7973 44.8058 -50.2368
4 25.7973 47.5213 -52.9522
4 27.155 43.448 -54.31
4 27.155 46.1635 -51.5945
4 29.8705 43.448 -51.5945
4 29.8705 46.1635 -54.31
4 28.5128 44.8058 -52.9522
4 28.5128 47.5213 -50.2368
4 31.2282 44.8058 -50.2368
4 31.2282 47.5213 -52.9522
4 32.586 43.448 -54.31
4 32.586 46.1635 -51.5945
4 35.3015 43.448 -51.5945
4 35.3015 46.1635 -54.31
4 33.9438 44.8058 -52.9522
4 33.9438 47.5213 -50.2368
4 36.6593 44.8058 -50.2368
4 36.6593 47.5213 -52.9522
4 38.017 43.448 -54.31
4 38.017 46.1635 -51.5945
4 40.7325 43.448 -51.5945
4 40.7325 46.1635 -54.31
4 39.3747 44.8058 -52.9522
4 39.3747 47.5213 -50.2368
4 42.0902 44.8058 -50.2368
4 42.0902 47.5213 -52.9522
4 43.448 43.448 -54.31
4 43.448 46.1635 -51.5945
4 46.1635 43.448 -51.5945
4 46.1635 46.1635 -54.31
4 44.8058 44.8058 -52.9522
4 44.8058 47.5213 -50.2368
4 47.5213 44.8058 -50.2368
4 47.5213 47.5213 -52.9522
4 48.879 43.448 -54.31
4 48.879 46.1635 -51.5945
4 51.5945 43.448 -51.5945
4 51.5945 46.1635 -54.31
4 50.2368 44.8058 -52.9522
4 50.2368 47.5213 -50.2368
4 52.9522 44.8058 -50.2368
4 52.9522 47.5213 -52.9522
4 0 48.879 -54.31
4 0 51.5945 -51.5945
4 2.7155 48.879 -51.5945
4 2.7155 51.5945 -54.31
4 1.35775 50.2368 -52.9522
4 1.35775 52.9522 -50.2368
4 4.07325 50.2368 -50.2368
4 4.07325 52.9522 -52.9522
4 5.431 48.879 -54.31
4 5.431 51.5945 -51.5945
4 8.1465 48.879 -51.5945
4 8.1465 51.5945 -54.31
4 6.78875 50.2368 -52.9522
4 6.78875 52.9522 -50.2368
4 9.50425 50.2368 -50.2368
4 9.50425 52.9522 -52.9522
4 10.862 48.879 -54.31
4 10.862 51.5945 -51.5945
4 13.5775 48.879 -51.5945
4 13.5775 51.5945 -54.31
4 12.2197 50.2368 -52.9522
4 12.2197 52.9522 -50.2368
4 14.9352 50.2368 -50.2368
4 14.9352 52.9522 -52.9522
4 16.293 48.879 -54.31
4 16.293 51.5945 -51.5945
4 19.0085 48.879 -51.5945
4 19.0085 51.5945 -54.31
4 17.6507 50.2368 -52.9522
4 17.6507 52.9522 -50.2368
4 20.3663 50.2368 -50.2368
4 20.3663 52.9522 -52.9522
4 21.724 48.879 -54.31
4 21.724 51.5945 -51.5945
4 24.4395 48.879 -51.5945
4 24.4395 51.5945 -54.31
4 23.0817 50.2368 -52.9522
4 23.0817 52.9522 -50.2368
4 25.7973 50.2368 -50.2368
4 25.7973 52.9522 -52.9522
4 27.155 48.879 -54.31
4 27.155 51.5945 -51.5945
4 29.8705 48.879 -51.5945
4 29.8705 51.5945 -54.31
4 28.5128 50.2368 -52.9522
4 28.5128 52.9522 -50.2368
4 31.2282 50.2368 -50.2368
4 31.2282 52.9522 -52.9522
4 32.586 48.879 -54.31
4 32.586 51.5945 -51.5945
4 35.3015 48.879 -51.5945
4 35.3015 51.5945 -54.31
4 33.9438 50.2368 -52.9522
4 33.9438 52.9522 -50.2368
4 36.6593 50.2368 -50.2368
4 36.6593 52.9522 -52.9522
4 38.017 48.879 -54.31
4 38.017 51.5945 -51.5945
4 40.7325 48.879 -51.5945
4 40.7325 51.5945 -54.31
4 39.3747 50.2368 -52.9522
4 39.3747 52.9522 -50.2368
4 42.0902 50.2368 -50.2368
4 42.0902 52.9522 -52.9522
4 43.448 48.879 -54.31
4 43.448 51.5945 -51.5945
4 46.1635 48.879 -51.5945
4 46.1635 51.5945 -54.31
4 44.8058 50.2368 -52.9522
4 44.8058 52.9522 -50.2368
4 47.5213 50.2368 -50.2368
4 47.5213 52.9522 -52.9522
4 48.879 48.879 -54.31
4 48.879 51.5945 -51.5945
4 51.5945 48.879 -51.5945
4 51.5945 51.5945 -54.31
4 50.2368 50.2368 -52.9522
4 50.2368 52.9522 -50.2368
4 52.9522 50.2368 -50.2368
4 52.9522 52.9522 -52.9522
4 0 0 -48.879
3 2.61658 2.67207 -18.0695
4 2.7155 2.7155 -48.879
4 1.35775 1.35775 -47.5213
3 1.26179 5.9493 -17.5726
3 4.00244 4.04861 -16.7162
4 4.07325 4.07325 -47.5213
4 5.431 0 -48.879
3 5.46752 5.43833 -18.0834
3 8.13784 2.72962 -18.0539
4 8.1465 2.7155 -48.879
4 6.78875 1.35775 -47.5213
3 6.72487 6.74299 -16.6314
3 9.51646 4.05502 -16.6709
4 9.50425 4.07325 -47.5213
4 10.862 0 -48.879
3 10.801 5.34053 -18.1226
3 13.5523 2.70612 -18.0854
4 13.5775 2.7155 -48.879
4 12.2197 1.35775 -47.5213
3 12.1499 6.75955 -16.731
3 14.8656 4.05867 -16.6722
4 14.9352 4.07325 -47.5213
4 16.293 0 -48.879
3 16.2976 5.45684 -18.0371
1 18.9731 2.69916 -18.1019
4 19.0085 2.7155 -48.879
4 17.6507 1.35775 -47.5213
1 17.7197 6.77821 -16.7997
1 20.3388 4.06886 -16.7557
4 20.3663 4.07325 -47.5213
4 21.724 0 -48.879
1 21.6786 5.39715 -18.1206
1 24.4703 2.69367 -18.136
4 24.4395 2.7155 -48.879
4 23.0817 1.35775 -47.5213
1 23.1322 6.7164 -16.8306
1 25.8771 4.04849 -16.7832
4 25.7973 4.07325 -47.5213
4 27.155 0 -48.879
1 27.1853 5.46035 -18.1474
1 29.8912 2.73235 -18.1408
4 29.8705 2.7155 -48.879
4 28.5128 1.35775 -47.5213
1 28.6324 6.72447 -16.7969
1 31.3518 4.11455 -16.8076
4 31.2282 4.07325 -47.5213
4 32.586 0 -48.879
1 32.6349 5.49454 -18.1413
1 35.3903 2.78107 -18.0979
4 35.3015 2.7155 -48.879
4 33.9438 1.35775 -47.5213
1 34.0739 6.78894 -16.8016
1 36.8505 4.06872 -16.7567
4 36.6593 4.07325 -47.5213
4 38.017 0 -48.879
1 38.0446 5.52316 -18.0692
1 40.8529 2.756 -18.1424
4 40.7325 2.7155 -48.879
4 39.3747 1.35775 -47.5213
1 39.5529 6.83989 -16.8289
1 42.3004 3.95956 -16.8411
4 42.0902 4.07325 -47.5213
4 43.448 0 -48.879
1 43.4929 5.46546 -18.1648
1 46.3004 2.84303 -18.1508
4 46.1635 2.7155 -48.879
4 44.8058 1.35775 -47.5213
1 45.1112 6.80335 -17.0109
1 47.7978 4.17414 -16.9675
4 47.5213 4.07325 -47.5213
4 48.879 0 -48.879
1 49.0918 5.68184 -18.1651
1 51.9442 3.0443 -18.2345
4 51.5945 2.7155 -48.879
4 50.2368 1.35775 -47.5213
1 50.794 7.09102 -17.3956
1 53.6406 4.2076 -17.0276
4 52.9522 4.07325 -47.5213
4 0 5.431 -48.879
3 2.60783 7.92882 -18.0395
4 2.7155 8.1465 -48.879
4 1.35775 6.78875 -47.5213
3 1.21929 11.2463 -17.3904
3 3.78475 9.31134 -16.6429
4 4.07325 9.50425 -47.5213
4 5.431 5.431 -48.879
3 5.29678 10.7743 -17.9634
3 8.09265 8.06983 -18.0561
4 8.1465 8.1465 -48.879
4 6.78875 6.78875 -47.5213
3 6.65457 12.1762 -16.698
3 9.47569 9.44624 -16.7541
4 9.50425 9.50425 -47.5213
4 10.862 5.431 -48.879
3 10.8527 10.8733 -18.0499
3 13.5506 8.12931 -18.0866
4 13.5775 8.1465 -48.879
4 12.2197 6.78875 -47.5213
3 12.1623 12.2907 -16.6815
3 14.9101 9.37063 -16.7299
4 14.9352 9.50425 -47.5213
4 16.293 5.431 -48.879
3 16.2679 10.7492 -18.0039
1 19.0223 8.19688 -18.0837
4 19.0085 8.1465 -48.879
4 17.6507 6.78875 -47.5213
1 17.5919 12.1929 -16.7163
1 20.3816 9.5606 -16.7337
4 20.3663 9.50425 -47.5213
4 21.724 5.431 -48.879
1 21.7774 10.9509 -17.9413
1 24.4977 8.17023 -18.0463
4 24.4395 8.1465 -48.879
4 23.0817 6.78875 -47.5213
1 23.205 12.3662 -16.7176
1 25.9362 9.62113 -16.7191
4 25.7973 9.50425 -47.5213
4 27.155 5.431 -48.879
1 27.2765 10.9305 -18.1469
1 29.9109 8.18419 -18.1212
4 29.8705 8.1465 -48.879
4 28.5128 6.78875 -47.5213
1 28.6704 12.2838 -16.8872
1 31.353 9.46472 -16.811
4 31.2282 9.50425 -47.5213
4 32.586 5.431 -48.879
1 32.6424 10.8993 -18.1599
1 35.2904 8.2054 -18.1023
4 35.3015 8.1465 -48.879
4 33.9438 6.78875 -47.5213
1 34.0631 12.2206 -16.8228
1 36.7576 9.53172 -16.9851
4 36.6593 9.50425 -47.5213
4 38.017 5.431 -48.879
1 38.1232 10.9802 -18.227
1 40.7847 8.21047 -18.1364
4 40.7325 8.1465 -48.879
4 39.3747 6.78875 -47.5213
1 39.5194 12.2974 -16.9154
1 42.2917 9.54905 -16.962
4 42.0902 9.50425 -47.5213
4 43.448 5.431 -48.879
1 43.5978 11.049 -18.1451
1 46.3421 8.29821 -18.2093
4 46.1635 8.1465 -48.879
4 44.8058 6.78875 -47.5213
1 45.1313 12.1883 -16.8901
1 47.8746 9.58625 -16.9446
4 47.5213 9.50425 -47.5213
4 48.879 5.431 -48.879
1 49.0377 11.0412 -18.2189
1 52.1173 8.65695 -18.4173
4 51.5945 8.1465 -48.879
4 50.2368 6.78875 -47.5213
1 50.5962 12.4085 -17.1676
1 53.4919 10.5372 -17.7413
4 52.9522 9.50425 -47.5213
4 0 10.862 -48.879
3 2.39595 13.2857 -18.075
4 2.7155 13.5775 -48.879
4 1.35775 12.2197 -47.5213
3 1.23106 17.9397 -16.3681
3 3.72455 14.8705 -16.7741
4 4.07325 14.9352 -47.5213
4 5.431 10.862 -48.879
3 5.25312 16.2169 -18.0519
3 8.13163 13.5086 -18.0606
4 8.1465 13.5775 -48.879
4 6.78875 12.2197 -47.5213
3 6.58589 17.6178 -16.7054
3 9.4681 14.8333 -16.8064
4 9.50425 14.9352 -47.5213
4 10.862 10.862 -48.879
3 10.8206 16.2808 -18.1769
3 13.582 13.5734 -18.0393
4 13.5775 13.5775 -48.879
4 12.2197 12.2197 -47.5213
3 12.1947 17.6283 -16.7459
3 14.9708 14.9416 -16.8104
4 14.9352 14.9352 -47.5213
4 16.293 10.862 -48.879
3 16.2557 16.2789 -18.0694
1 18.9959 13.5257 -17.9541
4 19.0085 13.5775 -48.879
4 17.6507 12.2197 -47.5213
1 17.7484 17.5631 -16.7661
1 20.4635 14.8316 -16.7492
4 20.3663 14.9352 -47.5213
4 21.724 10.862 -48.879
1 21.7436 16.2269 -18.0948
1 24.5002 13.6835 -18.1067
4 24.4395 13.5775 -48.879
4 23.0817 12.2197 -47.5213
1 23.1146 17.6537 -16.7886
1 25.8455 15.0118 -16.7116
4 25.7973 14.9352 -47.5213
4 27.155 10.862 -48.879
1 27.1211 16.3439 -18.0914
1 29.9994 13.6875 -18.1806
4 29.8705 13.5775 -48.879
4 28.5128 12.2197 -47.5213
1 28.6604 17.6437 -16.7487
1 31.3581 14.9499 -16.8027
4 31.2282 14.9352 -47.5213
4 32.586 10.862 -48.879
1 32.5912 16.3059 -18.1917
1 35.3618 13.6131 -18.1189
4 35.3015 13.5775 -48.879
4 33.9438 12.2197 -47.5213
1 34.0168 17.6034 -16.905
1 36.8241 14.9287 -16.7699
4 36.6593 14.9352 -47.5213
4 38.017 10.862 -48.879
1 38.0168 16.2783 -18.1497
1 40.8326 13.6297 -18.1193
4 40.7325 13.5775 -48.879
4 39.3747 12.2197 -47.5213
1 39.4922 17.6405 -16.9536
1 42.3219 14.9486 -16.9326
4 42.0902 14.9352 -47.5213
4 43.448 10.862 -48.879
1 43.5535 16.4017 -18.1766
1 46.3671 13.7043 -18.133
4 46.1635 13.5775 -48.879
4 44.8058 12.2197 -47.5213
1 45.0326 17.7891 -17.0716
1 47.8854 15.0687 -16.904
4 47.5213 14.9352 -47.5213
4 48.879 10.862 -48.879
1 49.0877 16.5191 -18.1449
1 51.8944 14.0283 -18.201
4 51.5945 13.5775 -48.879
4 50.2368 12.2197 -47.5213
1 50.8198 17.8636 -17.1391
1 53.6084 15.7327 -18.0101
4 52.9522 14.9352 -47.5213
4 0 16.293 -48.879
3 2.5802 18.9207 -18.0012
4 2.7155 19.0085 -48.879
4 1.35775 17.6507 -47.5213
3 1.11599 22.2061 -17.5848
3 3.99769 20.333 -16.7632
4 4.07325 20.3663 -47.5213
4 5.431 16.293 -48.879
3 5.41329 21.6616 -18.1368
3 8.05108 18.9671 -18.0293
4 8.1465 19.0085 -48.879
4 6.78875 17.6507 -47.5213
3 6.66193 23.006 -16.7073
3 9.46434 20.2368 -16.7521
4 9.50425 20.3663 -47.5213
4 10.862 16.293 -48.879
3 10.8104 21.6816 -18.0693
3 13.5529 19.0374 -18.048
4 13.5775 19.0085 -48.879
4 12.2197 17.6507 -47.5213
3 12.2122 23.0155 -16.7351
3 15.0169 20.2857 -16.6551
4 14.9352 20.3663 -47.5213
4 16.293 16.293 -48.879
3 16.288 21.7551 -17.9814
1 19.0263 19.0175 -18.0881
4 19.0085 19.0085 -48.879
4 17.6507 17.6507 -47.5213
1 17.7006 23.1322 -16.7221
1 20.4306 20.4533 -16.8207
4 20.3663 20.3663 -47.5213
4 21.724 16.293 -48.879
1 21.7812 21.8311 -18.0934
1 24.4494 18.934 -18.1671
4 24.4395 19.0085 -48.879
4 23.0817 17.6507 -47.5213
1 23.2144 23.1829 -16.769
1 25.806 20.2593 -16.7437
4 25.7973 20.3663 -47.5213
4 27.155 16.293 -48.879
1 27.1272 21.6733 -18.0755
1 29.8617 19.0301 -18.1484
4 29.8705 19.0085 -48.879
4 28.5128 17.6507 -47.5213
1 28.4692 23.1672 -16.8202
1 31.2489 20.4312 -16.8671
4 31.2282 20.3663 -47.5213
4 32.586 16.293 -48.879
1 32.6799 21.7308 -18.1585
1 35.367 19.0488 -18.1549
4 35.3015 19.0085 -48.879
4 33.9438 17.6507 -47.5213
1 33.9298 23.1178 -16.8046
1 36.7675 20.4167 -16.8237
4 36.6593 20.3663 -47.5213
4 38.017 16.293 -48.879
1 38.0992 21.822 -18.1797
1 40.7305 19.0946 -18.1913
4 40.7325 19.0085 -48.879
4 39.3747 17.6507 -47.5213
1 39.4187 23.2171 -16.841
1 42.1817 20.3767 -16.9495
4 42.0902 20.3663 -47.5213
4 43.448 16.293 -48.879
1 43.4878 21.7532 -18.2404
1 46.3728 19.2521 -18.1315
4 46.1635 19.0085 -48.879
4 44.8058 17.6507 -47.5213
1 44.9484 23.1901 -16.9926
1 47.9363 20.535 -16.9797
4 47.5213 20.3663 -47.5213
4 48.879 16.293 -48.879
1 49.1742 21.9107 -18.2558
1 52.0005 19.503 -18.3151
4 51.5945 19.0085 -48.879
4 50.2368 17.6507 -47.5213
1 50.6631 23.2486 -17.0609
1 53.5754 21.3982 -17.7387
4 52.9522 20.3663 -47.5213
4 0 21.724 -48.879
3 2.47373 24.1734 -18.1061
4 2.7155 24.4395 -48.879
4 1.35775 23.0817 -47.5213
3 1.2462 28.8924 -16.3678
3 3.88306 25.7603 -16.7859
4 4.07325 25.7973 -47.5213
4 5.431 21.724 -48.879
3 5.41929 27.0961 -18.0743
3 8.07431 24.4221 -18.0613
4 8.1465 24.4395 -48.879
4 6.78875 23.0817 -47.5213
3 6.76206 28.4386 -16.7506
3 9.43185 25.7315 -16.6496
4 9.50425 25.7973 -47.5213
4 10.862 21.724 -48.879
3 10.7562 27.16 -17.9919
3 13.5507 24.4162 -18.0296
4 13.5775 24.4395 -48.879
4 12.2197 23.0817 -47.5213
3 12.1507 28.5325 -16.6259
3 14.9269 25.7234 -16.6885
4 14.9352 25.7973 -47.5213
4 16.293 21.724 -48.879
3 16.314 27.1151 -18.0967
1 18.9764 24.4138 -18.0337
4 19.0085 24.4395 -48.879
4 17.6507 23.0817 -47.5213
1 17.6635 28.453 -16.784
1 20.4155 25.7272 -16.6513
4 20.3663 25.7973 -47.5213
4 21.724 21.724 -48.879
1 21.6912 27.1201 -18.0997
1 24.5538 24.5617 -18.1351
4 24.4395 24.4395 -48.879
4 23.0817 23.0817 -47.5213
1 23.0352 28.4793 -16.7463
1 25.8108 25.8794 -16.7103
4 25.7973 25.7973 -47.5213
4 27.155 21.724 -48.879
1 27.245 27.22 -18.073
1 29.8591 24.5016 -18.0708
4 29.8705 24.4395 -48.879
4 28.5128 23.0817 -47.5213
1 28.679 28.6068 -16.6967
1 31.2407 25.8787 -16.7387
4 31.2282 25.7973 -47.5213
4 32.586 21.724 -48.879