15353
 Atoms. Timestep: 50000
4 0 0 -54.31
4 0 2.7155 -51.5945
4 2.7155 0 -51.5945
4 2.7155 2.7155 -54.31
4 1.35775 1.35775 -52.9522
4 1.35775 4.07325 -50.2368
4 4.07325 1.35775 -50.2368
4 4.07325 4.07325 -52.9522
4 5.431 0 -54.31
4 5.431 2.7155 -51.5945
4 8.1465 0 -51.5945
4 8.1465 2.7155 -54.31
4 6.78875 1.35775 -52.9522
4 6.78875 4.07325 -50.2368
4 9.50425 1.35775 -50.2368
4 9.50425 4.07325 -52.9522
4 10.862 0 -54.31
4 10.862 2.7155 -51.5945
4 13.5775 0 -51.5945
4 13.5775 2.7155 -54.31
4 12.2197 1.35775 -52.9522
4 12.2197 4.07325 -50.2368
4 14.9352 1.35775 -50.2368
4 14.9352 4.07325 -52.9522
4 16.293 0 -54.31
4 16.293 2.7155 -51.5945
4 19.0085 0 -51.5945
4 19.0085 2.7155 -54.31
4 17.6507 1.35775 -52.9522
4 17.6507 4.07325 -50.2368
4 20.3663 1.35775 -50.2368
4 20.3663 4.07325 -52.9522
4 21.724 0 -54.31
4 21.724 2.7155 -51.5945
4 24.4395 0 -51.5945
4 24.4395 2.7155 -54.31
4 23.0817 1.35775 -52.9522
4 23.0817 4.07325 -50.2368
4 25.7973 1.35775 -50.2368
4 25.7973 4.07325 -52.9522
4 27.155 0 -54.31
4 27.155 2.7155 -51.5945
4 29.8705 0 -51.5945
4 29.8705 2.7155 -54.31
4 28.5128 1.35775 -52.9522
4 28.5128 4.07325 -50.2368
4 31.2282 1.35775 -50.2368
4 31.2282 4.07325 -52.9522
4 32.586 0 -54.31
4 32.586 2.7155 -51.5945
4 35.3015 0 -51.5945
4 35.3015 2.7155 -54.31
4 33.9438 1.35775 -52.9522
4 33.9438 4.07325 -50.2368
4 36.6593 1.35775 -50.2368
4 36.6593 4.07325 -52.9522
4 38.017 0 -54.31
4 38.017 2.7155 -51.5945
4 40.7325 0 -51.5945
4 40.7325 2.7155 -54.31
4 39.3747 1.35775 -52.9522
4 39.3747 4.07325 -50.2368
4 42.0902 1.35775 -50.2368
4 42.0902 4.07325 -52.9522
4 43.448 0 -54.31
4 43.448 2.7155 -51.5945
4 46.1635 0 -51.5945
4 46.1635 2.7155 -54.31
4 44.8058 1.35775 -52.9522
4 44.8058 4.07325 -50.2368
4 47.5213 1.35775 -50.2368
4 47.5213 4.07325 -52.9522
4 48.879 0 -54.31
4 48.879 2.7155 -51.5945
4 51.5945 0 -51.5945
4 51.5945 2.7155 -54.31
4 50.2368 1.35775 -52.9522
4 50.2368 4.07325 -50.2368
4 52.9522 1.35775 -50.2368
4 52.9522 4.07325 -52.9522
4 0 5.431 -54.31
4 0 8.1465 -51.5945
4 2.7155 5.431 -51.5945
4 2.7155 8.1465 -54.31
4 1.35775 6.78875 -52.9522
4 1.35775 9.50425 -50.2368
4 4.07325 6.78875 -50.2368
4 4.07325 9.50425 -52.9522
4 5.431 5.431 -54.31
4 5.431 8.1465 -51.5945
4 8.1465 5.431 -51.5945
4 8.1465 8.1465 -54.31
4 6.78875 6.78875 -52.9522
4 6.78875 9.50425 -50.2368
4 9.50425 6.78875 -50.2368
4 9.50425 9.50425 -52.9522
4 10.862 5.431 -54.31
4 10.862 8.1465 -51.5945
4 13.5775 5.431 -51.5945
4 13.5775 8.1465 -54.31
4 12.2197 6.78875 -52.9522
4 12.2197 9.50425 -50.2368
4 14.9352 6.78875 -50.2368
4 14.9352 9.50425 -52.9522
4 16.293 5.431 -54.31
4 16.293 8.1465 -51.5945
4 19.0085 5.431 -51.5945
4 19.0085 8.1465 -54.31
4 17.6507 6.78875 -52.9522
4 17.6507 9.50425 -50.2368
4 20.3663 6.78875 -50.2368
4 20.3663 9.50425 -52.9522
4 21.724 5.431 -54.31
4 21.724 8.1465 -51.5945
4 24.4395 5.431 -51.5945
4 24.4395 8.1465 -54.31
4 23.0817 6.78875 -52.9522
4 23.0817 9.50425 -50.2368
4 25.7973 6.78875 -50.2368
4 25.7973 9.50425 -52.9522
4 27.155 5.431 -54.31
4 27.155 8.1465 -51.5945
4 29.8705 5.431 -51.5945
4 29.8705 8.1465 -54.31
4 28.5128 6.78875 -52.9522
4 28.5128 9.50425 -50.2368
4 31.2282 6.78875 -50.2368
4 31.2282 9.50425 -52.9522
4 32.586 5.431 -54.31
4 32.586 8.1465 -51.5945
4 35.3015 5.431 -51.5945
4 35.3015 8.1465 -54.31
4 33.9438 6.78875 -52.9522
4 33.9438 9.50425 -50.2368
4 36.6593 6.78875 -50.2368
4 36.6593 9.50425 -52.9522
4 38.017 5.431 -54.31
4 38.017 8.1465 -51.5945
4 40.7325 5.431 -51.5945
4 40.7325 8.1465 -54.31
4 39.3747 6.78875 -52.9522
4 39.3747 9.50425 -50.2368
4 42.0902 6.78875 -50.2368
4 42.0902 9.50425 -52.9522
4 43.448 5.431 -54.31
4 43.448 8.1465 -51.5945
4 46.1635 5.431 -51.5945
4 46.1635 8.1465 -54.31
4 44.8058 6.78875 -52.9522
4 44.8058 9.50425 -50.2368
4 47.5213 6.78875 -50.2368
4 47.5213 9.50425 -52.9522
4 48.879 5.431 -54.31
4 48.879 8.1465 -51.5945
4 51.5945 5.431 -51.5945
4 51.5945 8.1465 -54.31
4 50.2368 6.78875 -52.9522
4 50.2368 9.50425 -50.2368
4 52.9522 6.78875 -50.2368
4 52.9522 9.50425 -52.9522
4 0 10.862 -54.31
4 0 13.5775 -51.5945
4 2.7155 10.862 -51.5945
4 2.7155 13.5775 -54.31
4 1.35775 12.2197 -52.9522
4 1.35775 14.9352 -50.2368
4 4.07325 12.2197 -50.2368
4 4.07325 14.9352 -52.9522
4 5.431 10.862 -54.31
4 5.431 13.5775 -51.5945
4 8.1465 10.862 -51.5945
4 8.1465 13.5775 -54.31
4 6.78875 12.2197 -52.9522
4 6.78875 14.9352 -50.2368
4 9.50425 12.2197 -50.2368
4 9.50425 14.9352 -52.9522
4 10.862 10.862 -54.31
4 10.862 13.5775 -51.5945
4 13.5775 10.862 -51.5945
4 13.5775 13.5775 -54.31
4 12.2197 12.2197 -52.9522
4 12.2197 14.9352 -50.2368
4 14.9352 12.2197 -50.2368
4 14.9352 14.9352 -52.9522
4 16.293 10.862 -54.31
4 16.293 13.5775 -51.5945
4 19.0085 10.862 -51.5945
4 19.0085 13.5775 -54.31
4 17.6507 12.2197 -52.9522
4 17.6507 14.9352 -50.2368
4 20.3663 12.2197 -50.2368
4 20.3663 14.9352 -52.9522
4 21.724 10.862 -54.31
4 21.724 13.5775 -51.5945
4 24.4395 10.862 -51.5945
4 24.4395 13.5775 -54.31
4 23.0817 12.2197 -52.9522
4 23.0817 14.9352 -50.2368
4 25.7973 12.2197 -50.2368
4 25.7973 14.9352 -52.9522
4 27.155 10.862 -54.31
4 27.155 13.5775 -51.5945
4 29.8705 10.862 -51.5945
4 29.8705 13.5775 -54.31
4 28.5128 12.2197 -52.9522
4 28.5128 14.9352 -50.2368
4 31.2282 12.2197 -50.2368
4 31.2282 14.9352 -52.9522
4 32.586 10.862 -54.31
4 32.586 13.5775 -51.5945
4 35.3015 10.862 -51.5945
4 35.3015 13.5775 -54.31
4 33.9438 12.2197 -52.9522
4 33.9438 14.9352 -50.2368
4 36.6593 12.2197 -50.2368
4 36.6593 14.9352 -52.9522
4 38.017 10.862 -54.31
4 38.017 13.5775 -51.5945
4 40.7325 10.862 -51.5945
4 40.7325 13.5775 -54.31
4 39.3747 12.2197 -52.9522
4 39.3747 14.9352 -50.2368
4 42.0902 12.2197 -50.2368
4 42.0902 14.9352 -52.9522
4 43.448 10.862 -54.31
4 43.448 13.5775 -51.5945
4 46.1635 10.862 -51.5945
4 46.1635 13.5775 -54.31
4 44.8058 12.2197 -52.9522
4 44.8058 14.9352 -50.2368
4 47.5213 12.2197 -50.2368
4 47.5213 14.9352 -52.9522
4 48.879 10.862 -54.31
4 48.879 13.5775 -51.5945
4 51.5945 10.862 -51.5945
4 51.5945 13.5775 -54.31
4 50.2368 12.2197 -52.9522
4 50.2368 14.9352 -50.2368
4 52.9522 12.2197 -50.2368
4 52.9522 14.9352 -52.9522
4 0 16.293 -54.31
4 0 19.0085 -51.5945
4 2.7155 16.293 -51.5945
4 2.7155 19.0085 -54.31
4 1.35775 17.6507 -52.9522
4 1.35775 20.3663 -50.2368
4 4.07325 17.6507 -50.2368
4 4.07325 20.3663 -52.9522
4 5.431 16.293 -54.31
4 5.431 19.0085 -51.5945
4 8.1465 16.293 -51.5945
4 8.1465 19.0085 -54.31
4 6.78875 17.6507 -52.9522
4 6.78875 20.3663 -50.2368
4 9.50425 17.6507 -50.2368
4 9.50425 20.3663 -52.9522
4 10.862 16.293 -54.31
4 10.862 19.0085 -51.5945
4 13.5775 16.293 -51.5945
4 13.5775 19.0085 -54.31
4 12.2197 17.6507 -52.9522
4 12.2197 20.3663 -50.2368
4 14.9352 17.6507 -50.2368
4 14.9352 20.3663 -52.9522
4 16.293 16.293 -54.31
4 16.293 19.0085 -51.5945
4 19.0085 16.293 -51.5945
4 19.0085 19.0085 -54.31
4 17.6507 17.6507 -52.9522
4 17.6507 20.3663 -50.2368
4 20.3663 17.6507 -50.2368
4 20.3663 20.3663 -52.9522
4 21.724 16.293 -54.31
4 21.724 19.0085 -51.5945
4 24.4395 16.293 -51.5945
4 24.4395 19.0085 -54.31
4 23.0817 17.6507 -52.9522
4 23.0817 20.3663 -50.2368
4 25.7973 17.6507 -50.2368
4 25.7973 20.3663 -52.9522
4 27.155 16.293 -54.31
4 27.155 19.0085 -51.5945
4 29.8705 16.293 -51.5945
4 29.8705 19.0085 -54.31
4 28.5128 17.6507 -52.9522
4 28.5128 20.3663 -50.2368
4 31.2282 17.6507 -50.2368
4 31.2282 20.3663 -52.9522
4 32.586 16.293 -54.31
4 32.586 19.0085 -51.5945
4 35.3015 16.293 -51.5945
4 35.3015 19.0085 -54.31
4 33.9438 17.6507 -52.9522
4 33.9438 20.3663 -50.2368
4 36.6593 17.6507 -50.2368
4 36.6593 20.3663 -52.9522
4 38.017 16.293 -54.31
4 38.017 19.0085 -51.5945
4 40.7325 16.293 -51.5945
4 40.7325 19.0085 -54.31
4 39.3747 17.6507 -52.9522
4 39.3747 20.3663 -50.2368
4 42.0902 17.6507 -50.2368
4 42.0902 20.3663 -52.9522
4 43.448 16.293 -54.31
4 43.448 19.0085 -51.5945
4 46.1635 16.293 -51.5945
4 46.1635 19.0085 -54.31
4 44.8058 17.6507 -52.9522
4 44.8058 20.3663 -50.2368
4 47.5213 17.6507 -50.2368
4 47.5213 20.3663 -52.9522
4 48.879 16.293 -54.31
4 48.879 19.0085 -51.5945
4 51.5945 16.293 -51.5945
4 51.5945 19.0085 -54.31
4 50.2368 17.6507 -52.9522
4 50.2368 20.3663 -50.2368
4 52.9522 17.6507 -50.2368
4 52.9522 20.3663 -52.9522
4 0 21.724 -54.31
4 0 24.4395 -51.5945
4 2.7155 21.724 -51.5945
4 2.7155 24.4395 -54.31
4 1.35775 23.0817 -52.9522
4 1.35775 25.7973 -50.2368
4 4.07325 23.0817 -50.2368
4 4.07325 25.7973 -52.9522
4 5.431 21.724 -54.31
4 5.431 24.4395 -51.5945
4 8.1465 21.724 -51.5945
4 8.1465 24.4395 -54.31
4 6.78875 23.0817 -52.9522
4 6.78875 25.7973 -50.2368
4 9.50425 23.0817 -50.2368
4 9.50425 25.7973 -52.9522
4 10.862 21.724 -54.31
4 10.862 24.4395 -51.5945
4 13.5775 21.724 -51.5945
4 13.5775 24.4395 -54.31
4 12.2197 23.0817 -52.9522
4 12.2197 25.7973 -50.2368
4 14.9352 23.0817 -50.2368
4 14.9352 25.7973 -52.9522
4 16.293 21.724 -54.31
4 16.293 24.4395 -51.5945
4 19.0085 21.724 -51.5945
4 19.0085 24.4395 -54.31
4 17.6507 23.0817 -52.9522
4 17.6507 25.7973 -50.2368
4 20.3663 23.0817 -50.2368
4 20.3663 25.7973 -52.9522
4 21.724 21.724 -54.31
4 21.724 24.4395 -51.5945
4 24.4395 21.724 -51.5945
4 24.4395 24.4395 -54.31
4 23.0817 23.0817 -52.9522
4 23.0817 25.7973 -50.2368
4 25.7973 23.0817 -50.2368
4 25.7973 25.7973 -52.9522
4 27.155 21.724 -54.31
4 27.155 24.4395 -51.5945
4 29.8705 21.724 -51.5945
4 29.8705 24.4395 -54.31
4 28.5128 23.0817 -52.9522
4 28.5128 25.7973 -50.2368
4 31.2282 23.0817 -50.2368
4 31.2282 25.7973 -52.9522
4 32.586 21.724 -54.31
4 32.586 24.4395 -51.5945
4 35.3015 21.724 -51.5945
4 35.3015 24.4395 -54.31
4 33.9438 23.0817 -52.9522
4 33.9438 25.7973 -50.2368
4 36.6593 23.0817 -50.2368
4 36.6593 25.7973 -52.9522
4 38.017 21.724 -54.31
4 38.017 24.4395 -51.5945
4 40.7325 21.724 -51.5945
4 40.7325 24.4395 -54.31
4 39.3747 23.0817 -52.9522
4 39.3747 25.7973 -50.2368
4 42.0902 23.0817 -50.2368
4 42.0902 25.7973 -52.9522
4 43.448 21.724 -54.31
4 43.448 24.4395 -51.5945
4 46.1635 21.724 -51.5945
4 46.1635 24.4395 -54.31
4 44.8058 23.0817 -52.9522
4 44.8058 25.7973 -50.2368
4 47.5213 23.0817 -50.2368
4 47.5213 25.7973 -52.9522
4 48.879 21.724 -54.31
4 48.879 24.4395 -51.5945
4 51.5945 21.724 -51.5945
4 51.5945 24.4395 -54.31
4 50.2368 23.0817 -52.9522
4 50.2368 25.7973 -50.2368
4 52.9522 23.0817 -50.2368
4 52.9522 25.7973 -52.9522
4 0 27.155 -54.31
4 0 29.8705 -51.5945
4 2.7155 27.155 -51.5945
4 2.7155 29.8705 -54.31
4 1.35775 28.5128 -52.9522
4 1.35775 31.2282 -50.2368
4 4.07325 28.5128 -50.2368
4 4.07325 31.2282 -52.9522
4 5.431 27.155 -54.31
4 5.431 29.8705 -51.5945
4 8.1465 27.155 -51.5945
4 8.1465 29.8705 -54.31
4 6.78875 28.5128 -52.9522
4 6.78875 31.2282 -50.2368
4 9.50425 28.5128 -50.2368
4 9.50425 31.2282 -52.9522
4 10.862 27.155 -54.31
4 10.862 29.8705 -51.5945
4 13.5775 27.155 -51.5945
4 13.5775 29.8705 -54.31
4 12.2197 28.5128 -52.9522
4 12.2197 31.2282 -50.2368
4 14.9352 28.5128 -50.2368
4 14.9352 31.2282 -52.9522
4 16.293 27.155 -54.31
4 16.293 29.8705 -51.5945
4 19.0085 27.155 -51.5945
4 19.0085 29.8705 -54.31
4 17.6507 28.5128 -52.9522
4 17.6507 31.2282 -50.2368
4 20.3663 28.5128 -50.2368
4 20.3663 31.2282 -52.9522
4 21.724 27.155 -54.31
4 21.724 29.8705 -51.5945
4 24.4395 27.155 -51.5945
4 24.4395 29.8705 -54.31
4 23.0817 28.5128 -52.9522
4 23.0817 31.2282 -50.2368
4 25.7973 28.5128 -50.2368
4 25.7973 31.2282 -52.9522
4 27.155 27.155 -54.31
4 27.155 29.8705 -51.5945
4 29.8705 27.155 -51.5945
4 29.8705 29.8705 -54.31
4 28.5128 28.5128 -52.9522
4 28.5128 31.2282 -50.2368
4 31.2282 28.5128 -50.2368
4 31.2282 31.2282 -52.9522
4 32.586 27.155 -54.31
4 32.586 29.8705 -51.5945
4 35.3015 27.155 -51.5945
4 35.3015 29.8705 -54.31
4 33.9438 28.5128 -52.9522
4 33.9438 31.2282 -50.2368
4 36.6593 28.5128 -50.2368
4 36.6593 31.2282 -52.9522
4 38.017 27.155 -54.31
4 38.017 29.8705 -51.5945
4 40.7325 27.155 -51.5945
4 40.7325 29.8705 -54.31
4 39.3747 28.5128 -52.9522
4 39.3747 31.2282 -50.2368
4 42.0902 28.5128 -50.2368
4 42.0902 31.2282 -52.9522
4 43.448 27.155 -54.31
4 43.448 29.8705 -51.5945
4 46.1635 27.155 -51.5945
4 46.1635 29.8705 -54.31
4 44.8058 28.5128 -52.9522
4 44.8058 31.2282 -50.2368
4 47.5213 28.5128 -50.2368
4 47.5213 31.2282 -52.9522
4 48.879 27.155 -54.31
4 48.879 29.8705 -51.5945
4 51.5945 27.155 -51.5945
4 51.5945 29.8705 -54.31
4 50.2368 28.5128 -52.9522
4 50.2368 31.2282 -50.2368
4 52.9522 28.5128 -50.2368
4 52.9522 31.2282 -52.9522
4 0 32.586 -54.31
4 0 35.3015 -51.5945
4 2.7155 32.586 -51.5945
4 2.7155 35.3015 -54.31
4 1.35775 33.9438 -52.9522
4 1.35775 36.6593 -50.2368
4 4.07325 33.9438 -50.2368
4 4.07325 36.6593 -52.9522
4 5.431 32.586 -54.31
4 5.431 35.3015 -51.5945
4 8.1465 32.586 -51.5945
4 8.1465 35.3015 -54.31
4 6.78875 33.9438 -52.9522
4 6.78875 36.6593 -50.2368
4 9.50425 33.9438 -50.2368
4 9.50425 36.6593 -52.9522
4 10.862 32.586 -54.31
4 10.862 35.3015 -51.5945
4 13.5775 32.586 -51.5945
4 13.5775 35.3015 -54.31
4 12.2197 33.9438 -52.9522
4 12.2197 36.6593 -50.2368
4 14.9352 33.9438 -50.2368
4 14.9352 36.6593 -52.9522
4 16.293 32.586 -54.31
4 16.293 35.3015 -51.5945
4 19.0085 32.586 -51.5945
4 19.0085 35.3015 -54.31
4 17.6507 33.9438 -52.9522
4 17.6507 36.6593 -50.2368
4 20.3663 33.9438 -50.2368
4 20.3663 36.6593 -52.9522
4 21.724 32.586 -54.31
4 21.724 35.3015 -51.5945
4 24.4395 32.586 -51.5945
4 24.4395 35.3015 -54.31
4 23.0817 33.9438 -52.9522
4 23.0817 36.6593 -50.2368
4 25.7973 33.9438 -50.2368
4 25.7973 36.6593 -52.9522
4 27.155 32.586 -54.31
4 27.155 35.3015 -51.5945
4 29.8705 32.586 -51.5945
4 29.8705 35.3015 -54.31
4 28.5128 33.9438 -52.9522
4 28.5128 36.6593 -50.2368
4 31.2282 33.9438 -50.2368
4 31.2282 36.6593 -52.9522
4 32.586 32.586 -54.31
4 32.586 35.3015 -51.5945
4 35.3015 32.586 -51.5945
4 35.3015 35.3015 -54.31
4 33.9438 33.9438 -52.9522
4 33.9438 36.6593 -50.2368
4 36.6593 33.9438 -50.2368
4 36.6593 36.6593 -52.9522
4 38.017 32.586 -54.31
4 38.017 35.3015 -51.5945
4 40.7325 32.586 -51.5945
4 40.7325 35.3015 -54.31
4 39.3747 33.9438 -52.9522
4 39.3747 36.6593 -50.2368
4 42.0902 33.9438 -50.2368
4 42.0902 36.6593 -52.9522
4 43.448 32.586 -54.31
4 43.448 35.3015 -51.5945
4 46.1635 32.586 -51.5945
4 46.1635 35.3015 -54.31
4 44.8058 33.9438 -52.9522
4 44.8058 36.6593 -50.2368
4 47.5213 33.9438 -50.2368
4 47.5213 36.6593 -52.9522
4 48.879 32.586 -54.31
4 48.879 35.3015 -51.5945
4 51.5945 32.586 -51.5945
4 51.5945 35.3015 -54.31
4 50.2368 33.9438 -52.9522
4 50.2368 36.6593 -50.2368
4 52.9522 33.9438 -50.2368
4 52.9522 36.6593 -52.9522
4 0 38.017 -54.31
4 0 40.7325 -51.5945
4 2.7155 38.017 -51.5945
4 2.7155 40.7325 -54.31
4 1.35775 39.3747 -52.9522
4 1.35775 42.0902 -50.2368
4 4.07325 39.3747 -50.2368
4 4.07325 42.0902 -52.9522
4 5.431 38.017 -54.31
4 5.431 40.7325 -51.5945
4 8.1465 38.017 -51.5945
4 8.1465 40.7325 -54.31
4 6.78875 39.3747 -52.9522
4 6.78875 42.0902 -50.2368
4 9.50425 39.3747 -50.2368
4 9.50425 42.0902 -52.9522
4 10.862 38.017 -54.31
4 10.862 40.7325 -51.5945
4 13.5775 38.017 -51.5945
4 13.5775 40.7325 -54.31
4 12.2197 39.3747 -52.9522
4 12.2197 42.0902 -50.2368
4 14.9352 39.3747 -50.2368
4 14.9352 42.0902 -52.9522
4 16.293 38.017 -54.31
4 16.293 40.7325 -51.5945
4 19.0085 38.017 -51.5945
4 19.0085 40.7325 -54.31
4 17.6507 39.3747 -52.9522
4 17.6507 42.0902 -50.2368
4 20.3663 39.3747 -50.2368
4 20.3663 42.0902 -52.9522
4 21.724 38.017 -54.31
4 21.724 40.7325 -51.5945
4 24.4395 38.017 -51.5945
4 24.4395 40.7325 -54.31
4 23.0817 39.3747 -52.9522
4 23.0817 42.0902 -50.2368
4 25.7973 39.3747 -50.2368
4 25.7973 42.0902 -52.9522
4 27.155 38.017 -54.31
4 27.155 40.7325 -51.5945
4 29.8705 38.017 -51.5945
4 29.8705 40.7325 -54.31
4 28.5128 39.3747 -52.9522
4 28.5128 42.0902 -50.2368
4 31.2282 39.3747 -50.2368
4 31.2282 42.0902 -52.9522
4 32.586 38.017 -54.31
4 32.586 40.7325 -51.5945
4 35.3015 38.017 -51.5945
4 35.3015 40.7325 -54.31
4 33.9438 39.3747 -52.9522
4 33.9438 42.0902 -50.2368
4 36.6593 39.3747 -50.2368
4 36.6593 42.0902 -52.9522
4 38.017 38.017 -54.31
4 38.017 40.7325 -51.5945
4 40.7325 38.017 -51.5945
4 40.7325 40.7325 -54.31
4 39.3747 39.3747 -52.9522
4 39.3747 42.0902 -50.2368
4 42.0902 39.3747 -50.2368
4 42.0902 42.0902 -52.9522
4 43.448 38.017 -54.31
4 43.448 40.7325 -51.5945
4 46.1635 38.017 -51.5945
4 46.1635 40.7325 -54.31
4 44.8058 39.3747 -52.9522
4 44.8058 42.0902 -50.2368
4 47.5213 39.3747 -50.2368
4 47.5213 42.0902 -52.9522
4 48.879 38.017 -54.31
4 48.879 40.7325 -51.5945
4 51.5945 38.017 -51.5945
4 51.5945 40.7325 -54.31
4 50.2368 39.3747 -52.9522
4 50.2368 42.0902 -50.2368
4 52.9522 39.3747 -50.2368
4 52.9522 42.0902 -52.9522
4 0 43.448 -54.31
4 0 46.1635 -51.5945
4 2.7155 43.448 -51.5945
4 2.7155 46.1635 -54.31
4 1.35775 44.8058 -52.9522
4 1.35775 47.5213 -50.2368
4 4.07325 44.8058 -50.2368
4 4.07325 47.5213 -52.9522
4 5.431 43.448 -54.31
4 5.431 46.1635 -51.5945
4 8.1465 43.448 -51.5945
4 8.1465 46.1635 -54.31
4 6.78875 44.8058 -52.9522
4 6.78875 47.5213 -50.2368
4 9.50425 44.8058 -50.2368
4 9.50425 47.5213 -52.9522
4 10.862 43.448 -54.31
4 10.862 46.1635 -51.5945
4 13.5775 43.448 -51.5945
4 13.5775 46.1635 -54.31
4 12.2197 44.8058 -52.9522
4 12.2197 47.5213 -50.2368
4 14.9352 44.8058 -50.2368
4 14.9352 47.5213 -52.9522
4 16.293 43.448 -54.31
4 16.293 46.1635 -51.5945
4 19.0085 43.448 -51.5945
4 19.0085 46.1635 -54.31
4 17.6507 44.8058 -52.9522
4 17.6507 47.5213 -50.2368
4 20.3663 44.8058 -50.2368
4 20.3663 47.5213 -52.9522
4 21.724 43.448 -54.31
4 21.724 46.1635 -51.5945
4 24.4395 43.448 -51.5945
4 24.4395 46.1635 -54.31
4 23.0817 44.8058 -52.9522
4 23.0817 47.5213 -50.2368
4 25.7973 44.8058 -50.2368
4 25.7973 47.5213 -52.9522
4 27.155 43.448 -54.31
4 27.155 46.1635 -51.5945
4 29.8705 43.448 -51.5945
4 29.8705 46.1635 -54.31
4 28.5128 44.8058 -52.9522
4 28.5128 47.5213 -50.2368
4 31.2282 44.8058 -50.2368
4 31.2282 47.5213 -52.9522
4 32.586 43.448 -54.31
4 32.586 46.1635 -51.5945
4 35.3015 43.448 -51.5945
4 35.3015 46.1635 -54.31
4 33.9438 44.8058 -52.9522
4 33.9438 47.5213 -50.2368
4 36.6593 44.8058 -50.2368
4 36.6593 47.5213 -52.9522
4 38.017 43.448 -54.31
4 38.017 46.1635 -51.5945
4 40.7325 43.448 -51.5945
4 40.7325 46.1635 -54.31
4 39.3747 44.8058 -52.9522
4 39.3747 47.5213 -50.2368
4 42.0902 44.8058 -50.2368
4 42.0902 47.5213 -52.9522
4 43.448 43.448 -54.31
4 43.448 46.1635 -51.5945
4 46.1635 43.448 -51.5945
4 46.1635 46.1635 -54.31
4 44.8058 44.8058 -52.9522
4 44.8058 47.5213 -50.2368
4 47.5213 44.8058 -50.2368
4 47.5213 47.5213 -52.9522
4 48.879 43.448 -54.31
4 48.879 46.1635 -51.5945
4 51.5945 43.448 -51.5945
4 51.5945 46.1635 -54.31
4 50.2368 44.8058 -52.9522
4 50.2368 47.5213 -50.2368
4 52.9522 44.8058 -50.2368
4 52.9522 47.5213 -52.9522
4 0 48.879 -54.31
4 0 51.5945 -51.5945
4 2.7155 48.879 -51.5945
4 2.7155 51.5945 -54.31
4 1.35775 50.2368 -52.9522
4 1.35775 52.9522 -50.2368
4 4.07325 50.2368 -50.2368
4 4.07325 52.9522 -52.9522
4 5.431 48.879 -54.31
4 5.431 51.5945 -51.5945
4 8.1465 48.879 -51.5945
4 8.1465 51.5945 -54.31
4 6.78875 50.2368 -52.9522
4 6.78875 52.9522 -50.2368
4 9.50425 50.2368 -50.2368
4 9.50425 52.9522 -52.9522
4 10.862 48.879 -54.31
4 10.862 51.5945 -51.5945
4 13.5775 48.879 -51.5945
4 13.5775 51.5945 -54.31
4 12.2197 50.2368 -52.9522
4 12.2197 52.9522 -50.2368
4 14.9352 50.2368 -50.2368
4 14.9352 52.9522 -52.9522
4 16.293 48.879 -54.31
4 16.293 51.5945 -51.5945
4 19.0085 48.879 -51.5945
4 19.0085 51.5945 -54.31
4 17.6507 50.2368 -52.9522
4 17.6507 52.9522 -50.2368
4 20.3663 50.2368 -50.2368
4 20.3663 52.9522 -52.9522
4 21.724 48.879 -54.31
4 21.724 51.5945 -51.5945
4 24.4395 48.879 -51.5945
4 24.4395 51.5945 -54.31
4 23.0817 50.2368 -52.9522
4 23.0817 52.9522 -50.2368
4 25.7973 50.2368 -50.2368
4 25.7973 52.9522 -52.9522
4 27.155 48.879 -54.31
4 27.155 51.5945 -51.5945
4 29.8705 48.879 -51.5945
4 29.8705 51.5945 -54.31
4 28.5128 50.2368 -52.9522
4 28.5128 52.9522 -50.2368
4 31.2282 50.2368 -50.2368
4 31.2282 52.9522 -52.9522
4 32.586 48.879 -54.31
4 32.586 51.5945 -51.5945
4 35.3015 48.879 -51.5945
4 35.3015 51.5945 -54.31
4 33.9438 50.2368 -52.9522
4 33.9438 52.9522 -50.2368
4 36.6593 50.2368 -50.2368
4 36.6593 52.9522 -52.9522
4 38.017 48.879 -54.31
4 38.017 51.5945 -51.5945
4 40.7325 48.879 -51.5945
4 40.7325 51.5945 -54.31
4 39.3747 50.2368 -52.9522
4 39.3747 52.9522 -50.2368
4 42.0902 50.2368 -50.2368
4 42.0902 52.9522 -52.9522
4 43.448 48.879 -54.31
4 43.448 51.5945 -51.5945
4 46.1635 48.879 -51.5945
4 46.1635 51.5945 -54.31
4 44.8058 50.2368 -52.9522
4 44.8058 52.9522 -50.2368
4 47.5213 50.2368 -50.2368
4 47.5213 52.9522 -52.9522
4 48.879 48.879 -54.31
4 48.879 51.5945 -51.5945
4 51.5945 48.879 -51.5945
4 51.5945 51.5945 -54.31
4 50.2368 50.2368 -52.9522
4 50.2368 52.9522 -50.2368
4 52.9522 50.2368 -50.2368
4 52.9522 52.9522 -52.9522
4 0 0 -48.879
3 2.6067 2.66951 -41.8217
4 2.7155 2.7155 -48.879
4 1.35775 1.35775 -47.5213
3 1.30324 6.50939 -40.8095
3 4.00315 4.02585 -40.4892
4 4.07325 4.07325 -47.5213
4 5.431 0 -48.879
3 5.34539 5.35956 -41.7859
3 8.1371 2.73402 -41.8173
4 8.1465 2.7155 -48.879
4 6.78875 1.35775 -47.5213
3 6.655 6.70066 -40.4734
3 9.42917 4.15864 -40.4523
4 9.50425 4.07325 -47.5213
4 10.862 0 -48.879
3 10.8504 5.45033 -41.7725
3 13.5433 2.6585 -41.844
4 13.5775 2.7155 -48.879
4 12.2197 1.35775 -47.5213
3 12.2126 6.86092 -40.3351
3 14.8492 4.11101 -40.4486
4 14.9352 4.07325 -47.5213
4 16.293 0 -48.879
3 16.2918 5.39699 -41.7586
1 18.9452 2.68183 -41.8392
4 19.0085 2.7155 -48.879
4 17.6507 1.35775 -47.5213
1 17.5637 6.88074 -40.4081
1 20.2506 4.14898 -40.454
4 20.3663 4.07325 -47.5213
4 21.724 0 -48.879
1 21.6749 5.38347 -41.814
1 24.4966 2.69591 -41.8045
4 24.4395 2.7155 -48.879
4 23.0817 1.35775 -47.5213
1 22.9616 6.76391 -40.3441
1 25.858 4.11037 -40.3644
4 25.7973 4.07325 -47.5213
4 27.155 0 -48.879
1 27.2521 5.46101 -41.777
1 29.8951 2.69613 -41.798
4 29.8705 2.7155 -48.879
4 28.5128 1.35775 -47.5213
1 28.5158 6.74167 -40.3322
1 31.2111 4.05536 -40.3632
4 31.2282 4.07325 -47.5213
4 32.586 0 -48.879
1 32.6594 5.44537 -41.7484
1 35.2171 2.7143 -41.7625
4 35.3015 2.7155 -48.879
4 33.9438 1.35775 -47.5213
1 33.9809 6.85194 -40.3792
1 36.6468 4.09158 -40.3935
4 36.6593 4.07325 -47.5213
4 38.017 0 -48.879
1 38.008 5.47666 -41.7914
1 40.6534 2.62216 -41.7257
4 40.7325 2.7155 -48.879
4 39.3747 1.35775 -47.5213
1 39.419 6.76643 -40.4048
1 41.9736 3.99122 -40.3282
4 42.0902 4.07325 -47.5213
4 43.448 0 -48.879
1 43.4498 5.39795 -41.7186
1 46.0818 2.68645 -41.6387
4 46.1635 2.7155 -48.879
4 44.8058 1.35775 -47.5213
1 44.7844 6.88715 -40.2976
1 47.3519 4.18489 -40.2492
4 47.5213 4.07325 -47.5213
4 48.879 0 -48.879
1 48.8115 5.43466 -41.7163
1 51.5879 2.77003 -41.7311
4 51.5945 2.7155 -48.879
4 50.2368 1.35775 -47.5213
1 50.0798 6.93679 -40.2832
1 52.806 4.34994 -40.2386
4 52.9522 4.07325 -47.5213
4 0 5.431 -48.879
3 2.62971 8.07762 -41.8207
4 2.7155 8.1465 -48.879
4 1.35775 6.78875 -47.5213
3 1.2595 12.0677 -40.4894
3 3.94242 9.45119 -40.4551
4 4.07325 9.50425 -47.5213
4 5.431 5.431 -48.879
3 5.37902 10.8497 -41.7762
3 8.09498 8.08968 -41.7816
4 8.1465 8.1465 -48.879
4 6.78875 6.78875 -47.5213
3 6.74193 12.1928 -40.3691
3 9.42368 9.50152 -40.4006
4 9.50425 9.50425 -47.5213
4 10.862 5.431 -48.879
3 10.8566 10.8924 -41.7356
3 13.5967 8.17246 -41.75
4 13.5775 8.1465 -48.879
4 12.2197 6.78875 -47.5213
3 12.2038 12.3338 -40.3213
3 14.9006 9.49371 -40.3576
4 14.9352 9.50425 -47.5213
4 16.293 5.431 -48.879
3 16.3432 10.838 -41.7224
1 18.9923 8.16031 -41.7526
4 19.0085 8.1465 -48.879
4 17.6507 6.78875 -47.5213
1 17.5763 12.2389 -40.268
1 20.3075 9.47272 -40.3494
4 20.3663 9.50425 -47.5213
4 21.724 5.431 -48.879
1 21.7304 10.8773 -41.7513
1 24.4954 8.05512 -41.7263
4 24.4395 8.1465 -48.879
4 23.0817 6.78875 -47.5213
1 23.0554 12.2422 -40.4811
1 25.7637 9.44509 -40.422
4 25.7973 9.50425 -47.5213
4 27.155 5.431 -48.879
1 27.1533 10.8272 -41.7163
1 29.8638 8.09137 -41.8018
4 29.8705 8.1465 -48.879
4 28.5128 6.78875 -47.5213
1 28.4894 12.2001 -40.2379
1 31.1418 9.54391 -40.3817
4 31.2282 9.50425 -47.5213
4 32.586 5.431 -48.879
1 32.4626 10.8916 -41.7693
1 35.34 8.27443 -41.6457
4 35.3015 8.1465 -48.879
4 33.9438 6.78875 -47.5213
1 33.8795 12.2472 -40.3752
1 36.73 9.60387 -40.2437
4 36.6593 9.50425 -47.5213
4 38.017 5.431 -48.879
1 38.1535 11.0057 -41.7343
1 40.6934 8.122 -41.7601
4 40.7325 8.1465 -48.879
4 39.3747 6.78875 -47.5213
1 39.4631 12.3011 -40.2563
1 42.0863 9.52672 -40.3557
4 42.0902 9.50425 -47.5213
4 43.448 5.431 -48.879
1 43.4493 10.8377 -41.7782
1 46.2077 8.13356 -41.7538
4 46.1635 8.1465 -48.879
4 44.8058 6.78875 -47.5213
1 44.673 12.3134 -40.3752
1 47.3809 9.59596 -40.1998
4 47.5213 9.50425 -47.5213
4 48.879 5.431 -48.879
1 48.7822 10.9462 -41.6946
1 51.6157 8.1892 -41.6231
4 51.5945 8.1465 -48.879
4 50.2368 6.78875 -47.5213
1 50.1208 12.3037 -40.1873
1 52.8595 9.60515 -40.1874
4 52.9522 9.50425 -47.5213
4 0 10.862 -48.879
3 2.67023 13.4509 -41.8013
4 2.7155 13.5775 -48.879
4 1.35775 12.2197 -47.5213
3 1.27581 17.8603 -40.1241
3 3.96556 14.9074 -40.4225
4 4.07325 14.9352 -47.5213
4 5.431 10.862 -48.879
3 5.39717 16.2283 -41.7286
3 8.13261 13.5689 -41.7421
4 8.1465 13.5775 -48.879
4 6.78875 12.2197 -47.5213
3 6.64878 17.669 -40.432
3 9.49675 14.9579 -40.4413
4 9.50425 14.9352 -47.5213
4 10.862 10.862 -48.879
3 10.8437 16.366 -41.7962
3 13.5366 13.6223 -41.7926
4 13.5775 13.5775 -48.879
4 12.2197 12.2197 -47.5213
3 12.1538 17.7145 -40.3601
3 14.8554 15.0376 -40.3326
4 14.9352 14.9352 -47.5213
4 16.293 10.862 -48.879
3 16.2545 16.2391 -41.7625
1 19.0183 13.5709 -41.6564
4 19.0085 13.5775 -48.879
4 17.6507 12.2197 -47.5213
1 17.5066 17.6862 -40.362
1 20.2881 14.9815 -40.3309
4 20.3663 14.9352 -47.5213
4 21.724 10.862 -48.879
1 21.7031 16.2767 -41.8076
1 24.41 13.6001 -41.7176
4 24.4395 13.5775 -48.879
4 23.0817 12.2197 -47.5213
1 23.1353 17.6566 -40.3695
1 25.832 14.9807 -40.3515
4 25.7973 14.9352 -47.5213
4 27.155 10.862 -48.879
1 27.2195 16.2881 -41.7897
1 29.8322 13.53 -41.7362
4 29.8705 13.5775 -48.879
4 28.5128 12.2197 -47.5213
1 28.4682 17.7076 -40.4246
1 31.1313 14.8642 -40.3261
4 31.2282 14.9352 -47.5213
4 32.586 10.862 -48.879
1 32.5726 16.2539 -41.8183
1 35.3108 13.6357 -41.7605
4 35.3015 13.5775 -48.879
4 33.9438 12.2197 -47.5213
1 33.9375 17.593 -40.4245
1 36.5868 15.0053 -40.3412
4 36.6593 14.9352 -47.5213
4 38.017 10.862 -48.879
1 38.0115 16.3218 -41.8161
1 40.6879 13.5322 -41.8276
4 40.7325 13.5775 -48.879
4 39.3747 12.2197 -47.5213
1 39.2807 17.7259 -40.2752
1 42.0084 15.0038 -40.3804
4 42.0902 14.9352 -47.5213
4 43.448 10.862 -48.879
1 43.455 16.3155 -41.7796
1 46.187 13.5711 -41.7179
4 46.1635 13.5775 -48.879
4 44.8058 12.2197 -47.5213
1 44.7717 17.7404 -40.3797
1 47.5273 14.9882 -40.2712
4 47.5213 14.9352 -47.5213
4 48.879 10.862 -48.879
1 48.8444 16.3115 -41.79
1 51.5356 13.6006 -41.6992
4 51.5945 13.5775 -48.879
4 50.2368 12.2197 -47.5213
1 50.1174 17.6711 -40.3104
1 52.7544 15.0689 -40.288
4 52.9522 14.9352 -47.5213
4 0 16.293 -48.879
3 2.63078 18.9092 -41.761
4 2.7155 19.0085 -48.879
4 1.35775 17.6507 -47.5213
3 1.17311 22.2904 -41.2502
3 4.03355 20.3801 -40.6037
4 4.07325 20.3663 -47.5213
4 5.431 16.293 -48.879
3 5.46196 21.7543 -41.8373
3 8.10752 19.0302 -41.783
4 8.1465 19.0085 -48.879
4 6.78875 17.6507 -47.5213
3 6.69352 23.2074 -40.4697
3 9.39142 20.4264 -40.4878
4 9.50425 20.3663 -47.5213
4 10.862 16.293 -48.879
3 10.8769 21.717 -41.8482
3 13.5493 19.0754 -41.7821
4 13.5775 19.0085 -48.879
4 12.2197 17.6507 -47.5213
3 12.2168 23.1242 -40.4934
3 14.8748 20.415 -40.3976
4 14.9352 20.3663 -47.5213
4 16.293 16.293 -48.879
3 16.2995 21.7924 -41.7821
1 18.9131 18.93 -41.7505
4 19.0085 19.0085 -48.879
4 17.6507 17.6507 -47.5213
1 17.5943 23.1735 -40.363
1 20.3094 20.3917 -40.4069
4 20.3663 20.3663 -47.5213
4 21.724 16.293 -48.879
1 21.7487 21.7 -41.7422
1 24.5092 19.0369 -41.8415
4 24.4395 19.0085 -48.879
4 23.0817 17.6507 -47.5213
1 23.0803 22.9451 -40.3316
1 25.8112 20.4297 -40.3243
4 25.7973 20.3663 -47.5213
4 27.155 16.293 -48.879
1 27.2005 21.7239 -41.8031
1 29.8456 18.9887 -41.8663
4 29.8705 19.0085 -48.879
4 28.5128 17.6507 -47.5213
1 28.5916 23.0443 -40.4154
1 31.2683 20.2984 -40.4581
4 31.2282 20.3663 -47.5213
4 32.586 16.293 -48.879
1 32.6085 21.7682 -41.8155
1 35.2422 18.9929 -41.7442
4 35.3015 19.0085 -48.879
4 33.9438 17.6507 -47.5213
1 33.8772 23.1845 -40.4788
1 36.6299 20.3892 -40.379
4 36.6593 20.3663 -47.5213
4 38.017 16.293 -48.879
1 37.9756 21.6644 -41.7427
1 40.6109 18.8935 -41.7731
4 40.7325 19.0085 -48.879
4 39.3747 17.6507 -47.5213
1 39.3147 23.0534 -40.3212
1 42.0126 20.2949 -40.3586
4 42.0902 20.3663 -47.5213
4 43.448 16.293 -48.879
1 43.4676 21.7025 -41.7661
1 46.1917 19.0498 -41.7772
4 46.1635 19.0085 -48.879
4 44.8058 17.6507 -47.5213
1 44.7693 23.0646 -40.3322
1 47.4429 20.3182 -40.2196
4 47.5213 20.3663 -47.5213
4 48.879 16.293 -48.879
1 48.8246 21.7305 -41.7672
1 51.5247 18.9682 -41.6375
4 51.5945 19.0085 -48.879
4 50.2368 17.6507 -47.5213
1 50.1918 23.0397 -40.4353
1 52.7438 20.082 -39.9721
4 52.9522 20.3663 -47.5213
4 0 21.724 -48.879
3 2.5612 24.2582 -41.8122
4 2.7155 24.4395 -48.879
4 1.35775 23.0817 -47.5213
3 1.19686 28.1047 -40.7982
3 3.97145 25.6695 -40.4897
4 4.07325 25.7973 -47.5213
4 5.431 21.724 -48.879
3 5.40971 27.1069 -41.8461
3 8.15354 24.4101 -41.8361
4 8.1465 24.4395 -48.879
4 6.78875 23.0817 -47.5213
3 6.64391 28.4675 -40.443
3 9.28742 25.7789 -40.333
4 9.50425 25.7973 -47.5213
4 10.862 21.724 -48.879
3 10.7583 27.167 -41.7567
3 13.6826 24.474 -41.8205
4 13.5775 24.4395 -48.879
4 12.2197 23.0817 -47.5213
3 12.1128 28.5026 -40.3595
3 14.969 25.863 -40.3754
4 14.9352 25.7973 -47.5213
4 16.293 21.724 -48.879
3 16.315 27.2361 -41.7701
1 19.0281 24.4165 -41.7463
4 19.0085 24.4395 -48.879
4 17.6507 23.0817 -47.5213
1 17.6164 28.5474 -40.3226
1 20.2197 25.8113 -40.3844
4 20.3663 25.7973 -47.5213
4 21.724 21.724 -48.879
1 21.605 27.1627 -41.7211
1 24.4644 24.4589 -41.7121
4 24.4395 24.4395 -48.879
4 23.0817 23.0817 -47.5213
1 22.9906 28.4084 -40.3531
1 25.8824 25.713 -40.3423
4 25.7973 25.7973 -47.5213
4 27.155 21.724 -48.879
1 27.1599 27.1723 -41.7575
1 29.9003 24.4217 -41.825
4 29.8705 24.4395 -48.879
4 28.5128 23.0817 -47.5213
1 28.4439 28.5556 -40.2956
1 31.2773 25.7841 -40.3505
4 31.2282 25.7973 -47.5213
4 32.586 21.724 -48.879
1 32.5603 27.1303 -41.8284