15280
 Atoms. Timestep: 80000
4 0 0 -54.31
4 0 2.7155 -51.5945
4 2.7155 0 -51.5945
4 2.7155 2.7155 -54.31
4 1.35775 1.35775 -52.9522
4 1.35775 4.07325 -50.2368
4 4.07325 1.35775 -50.2368
4 4.07325 4.07325 -52.9522
4 5.431 0 -54.31
4 5.431 2.7155 -51.5945
4 8.1465 0 -51.5945
4 8.1465 2.7155 -54.31
4 6.78875 1.35775 -52.9522
4 6.78875 4.07325 -50.2368
4 9.50425 1.35775 -50.2368
4 9.50425 4.07325 -52.9522
4 10.862 0 -54.31
4 10.862 2.7155 -51.5945
4 13.5775 0 -51.5945
4 13.5775 2.7155 -54.31
4 12.2197 1.35775 -52.9522
4 12.2197 4.07325 -50.2368
4 14.9352 1.35775 -50.2368
4 14.9352 4.07325 -52.9522
4 16.293 0 -54.31
4 16.293 2.7155 -51.5945
4 19.0085 0 -51.5945
4 19.0085 2.7155 -54.31
4 17.6507 1.35775 -52.9522
4 17.6507 4.07325 -50.2368
4 20.3663 1.35775 -50.2368
4 20.3663 4.07325 -52.9522
4 21.724 0 -54.31
4 21.724 2.7155 -51.5945
4 24.4395 0 -51.5945
4 24.4395 2.7155 -54.31
4 23.0817 1.35775 -52.9522
4 23.0817 4.07325 -50.2368
4 25.7973 1.35775 -50.2368
4 25.7973 4.07325 -52.9522
4 27.155 0 -54.31
4 27.155 2.7155 -51.5945
4 29.8705 0 -51.5945
4 29.8705 2.7155 -54.31
4 28.5128 1.35775 -52.9522
4 28.5128 4.07325 -50.2368
4 31.2282 1.35775 -50.2368
4 31.2282 4.07325 -52.9522
4 32.586 0 -54.31
4 32.586 2.7155 -51.5945
4 35.3015 0 -51.5945
4 35.3015 2.7155 -54.31
4 33.9438 1.35775 -52.9522
4 33.9438 4.07325 -50.2368
4 36.6593 1.35775 -50.2368
4 36.6593 4.07325 -52.9522
4 38.017 0 -54.31
4 38.017 2.7155 -51.5945
4 40.7325 0 -51.5945
4 40.7325 2.7155 -54.31
4 39.3747 1.35775 -52.9522
4 39.3747 4.07325 -50.2368
4 42.0902 1.35775 -50.2368
4 42.0902 4.07325 -52.9522
4 43.448 0 -54.31
4 43.448 2.7155 -51.5945
4 46.1635 0 -51.5945
4 46.1635 2.7155 -54.31
4 44.8058 1.35775 -52.9522
4 44.8058 4.07325 -50.2368
4 47.5213 1.35775 -50.2368
4 47.5213 4.07325 -52.9522
4 48.879 0 -54.31
4 48.879 2.7155 -51.5945
4 51.5945 0 -51.5945
4 51.5945 2.7155 -54.31
4 50.2368 1.35775 -52.9522
4 50.2368 4.07325 -50.2368
4 52.9522 1.35775 -50.2368
4 52.9522 4.07325 -52.9522
4 0 5.431 -54.31
4 0 8.1465 -51.5945
4 2.7155 5.431 -51.5945
4 2.7155 8.1465 -54.31
4 1.35775 6.78875 -52.9522
4 1.35775 9.50425 -50.2368
4 4.07325 6.78875 -50.2368
4 4.07325 9.50425 -52.9522
4 5.431 5.431 -54.31
4 5.431 8.1465 -51.5945
4 8.1465 5.431 -51.5945
4 8.1465 8.1465 -54.31
4 6.78875 6.78875 -52.9522
4 6.78875 9.50425 -50.2368
4 9.50425 6.78875 -50.2368
4 9.50425 9.50425 -52.9522
4 10.862 5.431 -54.31
4 10.862 8.1465 -51.5945
4 13.5775 5.431 -51.5945
4 13.5775 8.1465 -54.31
4 12.2197 6.78875 -52.9522
4 12.2197 9.50425 -50.2368
4 14.9352 6.78875 -50.2368
4 14.9352 9.50425 -52.9522
4 16.293 5.431 -54.31
4 16.293 8.1465 -51.5945
4 19.0085 5.431 -51.5945
4 19.0085 8.1465 -54.31
4 17.6507 6.78875 -52.9522
4 17.6507 9.50425 -50.2368
4 20.3663 6.78875 -50.2368
4 20.3663 9.50425 -52.9522
4 21.724 5.431 -54.31
4 21.724 8.1465 -51.5945
4 24.4395 5.431 -51.5945
4 24.4395 8.1465 -54.31
4 23.0817 6.78875 -52.9522
4 23.0817 9.50425 -50.2368
4 25.7973 6.78875 -50.2368
4 25.7973 9.50425 -52.9522
4 27.155 5.431 -54.31
4 27.155 8.1465 -51.5945
4 29.8705 5.431 -51.5945
4 29.8705 8.1465 -54.31
4 28.5128 6.78875 -52.9522
4 28.5128 9.50425 -50.2368
4 31.2282 6.78875 -50.2368
4 31.2282 9.50425 -52.9522
4 32.586 5.431 -54.31
4 32.586 8.1465 -51.5945
4 35.3015 5.431 -51.5945
4 35.3015 8.1465 -54.31
4 33.9438 6.78875 -52.9522
4 33.9438 9.50425 -50.2368
4 36.6593 6.78875 -50.2368
4 36.6593 9.50425 -52.9522
4 38.017 5.431 -54.31
4 38.017 8.1465 -51.5945
4 40.7325 5.431 -51.5945
4 40.7325 8.1465 -54.31
4 39.3747 6.78875 -52.9522
4 39.3747 9.50425 -50.2368
4 42.0902 6.78875 -50.2368
4 42.0902 9.50425 -52.9522
4 43.448 5.431 -54.31
4 43.448 8.1465 -51.5945
4 46.1635 5.431 -51.5945
4 46.1635 8.1465 -54.31
4 44.8058 6.78875 -52.9522
4 44.8058 9.50425 -50.2368
4 47.5213 6.78875 -50.2368
4 47.5213 9.50425 -52.9522
4 48.879 5.431 -54.31
4 48.879 8.1465 -51.5945
4 51.5945 5.431 -51.5945
4 51.5945 8.1465 -54.31
4 50.2368 6.78875 -52.9522
4 50.2368 9.50425 -50.2368
4 52.9522 6.78875 -50.2368
4 52.9522 9.50425 -52.9522
4 0 10.862 -54.31
4 0 13.5775 -51.5945
4 2.7155 10.862 -51.5945
4 2.7155 13.5775 -54.31
4 1.35775 12.2197 -52.9522
4 1.35775 14.9352 -50.2368
4 4.07325 12.2197 -50.2368
4 4.07325 14.9352 -52.9522
4 5.431 10.862 -54.31
4 5.431 13.5775 -51.5945
4 8.1465 10.862 -51.5945
4 8.1465 13.5775 -54.31
4 6.78875 12.2197 -52.9522
4 6.78875 14.9352 -50.2368
4 9.50425 12.2197 -50.2368
4 9.50425 14.9352 -52.9522
4 10.862 10.862 -54.31
4 10.862 13.5775 -51.5945
4 13.5775 10.862 -51.5945
4 13.5775 13.5775 -54.31
4 12.2197 12.2197 -52.9522
4 12.2197 14.9352 -50.2368
4 14.9352 12.2197 -50.2368
4 14.9352 14.9352 -52.9522
4 16.293 10.862 -54.31
4 16.293 13.5775 -51.5945
4 19.0085 10.862 -51.5945
4 19.0085 13.5775 -54.31
4 17.6507 12.2197 -52.9522
4 17.6507 14.9352 -50.2368
4 20.3663 12.2197 -50.2368
4 20.3663 14.9352 -52.9522
4 21.724 10.862 -54.31
4 21.724 13.5775 -51.5945
4 24.4395 10.862 -51.5945
4 24.4395 13.5775 -54.31
4 23.0817 12.2197 -52.9522
4 23.0817 14.9352 -50.2368
4 25.7973 12.2197 -50.2368
4 25.7973 14.9352 -52.9522
4 27.155 10.862 -54.31
4 27.155 13.5775 -51.5945
4 29.8705 10.862 -51.5945
4 29.8705 13.5775 -54.31
4 28.5128 12.2197 -52.9522
4 28.5128 14.9352 -50.2368
4 31.2282 12.2197 -50.2368
4 31.2282 14.9352 -52.9522
4 32.586 10.862 -54.31
4 32.586 13.5775 -51.5945
4 35.3015 10.862 -51.5945
4 35.3015 13.5775 -54.31
4 33.9438 12.2197 -52.9522
4 33.9438 14.9352 -50.2368
4 36.6593 12.2197 -50.2368
4 36.6593 14.9352 -52.9522
4 38.017 10.862 -54.31
4 38.017 13.5775 -51.5945
4 40.7325 10.862 -51.5945
4 40.7325 13.5775 -54.31
4 39.3747 12.2197 -52.9522
4 39.3747 14.9352 -50.2368
4 42.0902 12.2197 -50.2368
4 42.0902 14.9352 -52.9522
4 43.448 10.862 -54.31
4 43.448 13.5775 -51.5945
4 46.1635 10.862 -51.5945
4 46.1635 13.5775 -54.31
4 44.8058 12.2197 -52.9522
4 44.8058 14.9352 -50.2368
4 47.5213 12.2197 -50.2368
4 47.5213 14.9352 -52.9522
4 48.879 10.862 -54.31
4 48.879 13.5775 -51.5945
4 51.5945 10.862 -51.5945
4 51.5945 13.5775 -54.31
4 50.2368 12.2197 -52.9522
4 50.2368 14.9352 -50.2368
4 52.9522 12.2197 -50.2368
4 52.9522 14.9352 -52.9522
4 0 16.293 -54.31
4 0 19.0085 -51.5945
4 2.7155 16.293 -51.5945
4 2.7155 19.0085 -54.31
4 1.35775 17.6507 -52.9522
4 1.35775 20.3663 -50.2368
4 4.07325 17.6507 -50.2368
4 4.07325 20.3663 -52.9522
4 5.431 16.293 -54.31
4 5.431 19.0085 -51.5945
4 8.1465 16.293 -51.5945
4 8.1465 19.0085 -54.31
4 6.78875 17.6507 -52.9522
4 6.78875 20.3663 -50.2368
4 9.50425 17.6507 -50.2368
4 9.50425 20.3663 -52.9522
4 10.862 16.293 -54.31
4 10.862 19.0085 -51.5945
4 13.5775 16.293 -51.5945
4 13.5775 19.0085 -54.31
4 12.2197 17.6507 -52.9522
4 12.2197 20.3663 -50.2368
4 14.9352 17.6507 -50.2368
4 14.9352 20.3663 -52.9522
4 16.293 16.293 -54.31
4 16.293 19.0085 -51.5945
4 19.0085 16.293 -51.5945
4 19.0085 19.0085 -54.31
4 17.6507 17.6507 -52.9522
4 17.6507 20.3663 -50.2368
4 20.3663 17.6507 -50.2368
4 20.3663 20.3663 -52.9522
4 21.724 16.293 -54.31
4 21.724 19.0085 -51.5945
4 24.4395 16.293 -51.5945
4 24.4395 19.0085 -54.31
4 23.0817 17.6507 -52.9522
4 23.0817 20.3663 -50.2368
4 25.7973 17.6507 -50.2368
4 25.7973 20.3663 -52.9522
4 27.155 16.293 -54.31
4 27.155 19.0085 -51.5945
4 29.8705 16.293 -51.5945
4 29.8705 19.0085 -54.31
4 28.5128 17.6507 -52.9522
4 28.5128 20.3663 -50.2368
4 31.2282 17.6507 -50.2368
4 31.2282 20.3663 -52.9522
4 32.586 16.293 -54.31
4 32.586 19.0085 -51.5945
4 35.3015 16.293 -51.5945
4 35.3015 19.0085 -54.31
4 33.9438 17.6507 -52.9522
4 33.9438 20.3663 -50.2368
4 36.6593 17.6507 -50.2368
4 36.6593 20.3663 -52.9522
4 38.017 16.293 -54.31
4 38.017 19.0085 -51.5945
4 40.7325 16.293 -51.5945
4 40.7325 19.0085 -54.31
4 39.3747 17.6507 -52.9522
4 39.3747 20.3663 -50.2368
4 42.0902 17.6507 -50.2368
4 42.0902 20.3663 -52.9522
4 43.448 16.293 -54.31
4 43.448 19.0085 -51.5945
4 46.1635 16.293 -51.5945
4 46.1635 19.0085 -54.31
4 44.8058 17.6507 -52.9522
4 44.8058 20.3663 -50.2368
4 47.5213 17.6507 -50.2368
4 47.5213 20.3663 -52.9522
4 48.879 16.293 -54.31
4 48.879 19.0085 -51.5945
4 51.5945 16.293 -51.5945
4 51.5945 19.0085 -54.31
4 50.2368 17.6507 -52.9522
4 50.2368 20.3663 -50.2368
4 52.9522 17.6507 -50.2368
4 52.9522 20.3663 -52.9522
4 0 21.724 -54.31
4 0 24.4395 -51.5945
4 2.7155 21.724 -51.5945
4 2.7155 24.4395 -54.31
4 1.35775 23.0817 -52.9522
4 1.35775 25.7973 -50.2368
4 4.07325 23.0817 -50.2368
4 4.07325 25.7973 -52.9522
4 5.431 21.724 -54.31
4 5.431 24.4395 -51.5945
4 8.1465 21.724 -51.5945
4 8.1465 24.4395 -54.31
4 6.78875 23.0817 -52.9522
4 6.78875 25.7973 -50.2368
4 9.50425 23.0817 -50.2368
4 9.50425 25.7973 -52.9522
4 10.862 21.724 -54.31
4 10.862 24.4395 -51.5945
4 13.5775 21.724 -51.5945
4 13.5775 24.4395 -54.31
4 12.2197 23.0817 -52.9522
4 12.2197 25.7973 -50.2368
4 14.9352 23.0817 -50.2368
4 14.9352 25.7973 -52.9522
4 16.293 21.724 -54.31
4 16.293 24.4395 -51.5945
4 19.0085 21.724 -51.5945
4 19.0085 24.4395 -54.31
4 17.6507 23.0817 -52.9522
4 17.6507 25.7973 -50.2368
4 20.3663 23.0817 -50.2368
4 20.3663 25.7973 -52.9522
4 21.724 21.724 -54.31
4 21.724 24.4395 -51.5945
4 24.4395 21.724 -51.5945
4 24.4395 24.4395 -54.31
4 23.0817 23.0817 -52.9522
4 23.0817 25.7973 -50.2368
4 25.7973 23.0817 -50.2368
4 25.7973 25.7973 -52.9522
4 27.155 21.724 -54.31
4 27.155 24.4395 -51.5945
4 29.8705 21.724 -51.5945
4 29.8705 24.4395 -54.31
4 28.5128 23.0817 -52.9522
4 28.5128 25.7973 -50.2368
4 31.2282 23.0817 -50.2368
4 31.2282 25.7973 -52.9522
4 32.586 21.724 -54.31
4 32.586 24.4395 -51.5945
4 35.3015 21.724 -51.5945
4 35.3015 24.4395 -54.31
4 33.9438 23.0817 -52.9522
4 33.9438 25.7973 -50.2368
4 36.6593 23.0817 -50.2368
4 36.6593 25.7973 -52.9522
4 38.017 21.724 -54.31
4 38.017 24.4395 -51.5945
4 40.7325 21.724 -51.5945
4 40.7325 24.4395 -54.31
4 39.3747 23.0817 -52.9522
4 39.3747 25.7973 -50.2368
4 42.0902 23.0817 -50.2368
4 42.0902 25.7973 -52.9522
4 43.448 21.724 -54.31
4 43.448 24.4395 -51.5945
4 46.1635 21.724 -51.5945
4 46.1635 24.4395 -54.31
4 44.8058 23.0817 -52.9522
4 44.8058 25.7973 -50.2368
4 47.5213 23.0817 -50.2368
4 47.5213 25.7973 -52.9522
4 48.879 21.724 -54.31
4 48.879 24.4395 -51.5945
4 51.5945 21.724 -51.5945
4 51.5945 24.4395 -54.31
4 50.2368 23.0817 -52.9522
4 50.2368 25.7973 -50.2368
4 52.9522 23.0817 -50.2368
4 52.9522 25.7973 -52.9522
4 0 27.155 -54.31
4 0 29.8705 -51.5945
4 2.7155 27.155 -51.5945
4 2.7155 29.8705 -54.31
4 1.35775 28.5128 -52.9522
4 1.35775 31.2282 -50.2368
4 4.07325 28.5128 -50.2368
4 4.07325 31.2282 -52.9522
4 5.431 27.155 -54.31
4 5.431 29.8705 -51.5945
4 8.1465 27.155 -51.5945
4 8.1465 29.8705 -54.31
4 6.78875 28.5128 -52.9522
4 6.78875 31.2282 -50.2368
4 9.50425 28.5128 -50.2368
4 9.50425 31.2282 -52.9522
4 10.862 27.155 -54.31
4 10.862 29.8705 -51.5945
4 13.5775 27.155 -51.5945
4 13.5775 29.8705 -54.31
4 12.2197 28.5128 -52.9522
4 12.2197 31.2282 -50.2368
4 14.9352 28.5128 -50.2368
4 14.9352 31.2282 -52.9522
4 16.293 27.155 -54.31
4 16.293 29.8705 -51.5945
4 19.0085 27.155 -51.5945
4 19.0085 29.8705 -54.31
4 17.6507 28.5128 -52.9522
4 17.6507 31.2282 -50.2368
4 20.3663 28.5128 -50.2368
4 20.3663 31.2282 -52.9522
4 21.724 27.155 -54.31
4 21.724 29.8705 -51.5945
4 24.4395 27.155 -51.5945
4 24.4395 29.8705 -54.31
4 23.0817 28.5128 -52.9522
4 23.0817 31.2282 -50.2368
4 25.7973 28.5128 -50.2368
4 25.7973 31.2282 -52.9522
4 27.155 27.155 -54.31
4 27.155 29.8705 -51.5945
4 29.8705 27.155 -51.5945
4 29.8705 29.8705 -54.31
4 28.5128 28.5128 -52.9522
4 28.5128 31.2282 -50.2368
4 31.2282 28.5128 -50.2368
4 31.2282 31.2282 -52.9522
4 32.586 27.155 -54.31
4 32.586 29.8705 -51.5945
4 35.3015 27.155 -51.5945
4 35.3015 29.8705 -54.31
4 33.9438 28.5128 -52.9522
4 33.9438 31.2282 -50.2368
4 36.6593 28.5128 -50.2368
4 36.6593 31.2282 -52.9522
4 38.017 27.155 -54.31
4 38.017 29.8705 -51.5945
4 40.7325 27.155 -51.5945
4 40.7325 29.8705 -54.31
4 39.3747 28.5128 -52.9522
4 39.3747 31.2282 -50.2368
4 42.0902 28.5128 -50.2368
4 42.0902 31.2282 -52.9522
4 43.448 27.155 -54.31
4 43.448 29.8705 -51.5945
4 46.1635 27.155 -51.5945
4 46.1635 29.8705 -54.31
4 44.8058 28.5128 -52.9522
4 44.8058 31.2282 -50.2368
4 47.5213 28.5128 -50.2368
4 47.5213 31.2282 -52.9522
4 48.879 27.155 -54.31
4 48.879 29.8705 -51.5945
4 51.5945 27.155 -51.5945
4 51.5945 29.8705 -54.31
4 50.2368 28.5128 -52.9522
4 50.2368 31.2282 -50.2368
4 52.9522 28.5128 -50.2368
4 52.9522 31.2282 -52.9522
4 0 32.586 -54.31
4 0 35.3015 -51.5945
4 2.7155 32.586 -51.5945
4 2.7155 35.3015 -54.31
4 1.35775 33.9438 -52.9522
4 1.35775 36.6593 -50.2368
4 4.07325 33.9438 -50.2368
4 4.07325 36.6593 -52.9522
4 5.431 32.586 -54.31
4 5.431 35.3015 -51.5945
4 8.1465 32.586 -51.5945
4 8.1465 35.3015 -54.31
4 6.78875 33.9438 -52.9522
4 6.78875 36.6593 -50.2368
4 9.50425 33.9438 -50.2368
4 9.50425 36.6593 -52.9522
4 10.862 32.586 -54.31
4 10.862 35.3015 -51.5945
4 13.5775 32.586 -51.5945
4 13.5775 35.3015 -54.31
4 12.2197 33.9438 -52.9522
4 12.2197 36.6593 -50.2368
4 14.9352 33.9438 -50.2368
4 14.9352 36.6593 -52.9522
4 16.293 32.586 -54.31
4 16.293 35.3015 -51.5945
4 19.0085 32.586 -51.5945
4 19.0085 35.3015 -54.31
4 17.6507 33.9438 -52.9522
4 17.6507 36.6593 -50.2368
4 20.3663 33.9438 -50.2368
4 20.3663 36.6593 -52.9522
4 21.724 32.586 -54.31
4 21.724 35.3015 -51.5945
4 24.4395 32.586 -51.5945
4 24.4395 35.3015 -54.31
4 23.0817 33.9438 -52.9522
4 23.0817 36.6593 -50.2368
4 25.7973 33.9438 -50.2368
4 25.7973 36.6593 -52.9522
4 27.155 32.586 -54.31
4 27.155 35.3015 -51.5945
4 29.8705 32.586 -51.5945
4 29.8705 35.3015 -54.31
4 28.5128 33.9438 -52.9522
4 28.5128 36.6593 -50.2368
4 31.2282 33.9438 -50.2368
4 31.2282 36.6593 -52.9522
4 32.586 32.586 -54.31
4 32.586 35.3015 -51.5945
4 35.3015 32.586 -51.5945
4 35.3015 35.3015 -54.31
4 33.9438 33.9438 -52.9522
4 33.9438 36.6593 -50.2368
4 36.6593 33.9438 -50.2368
4 36.6593 36.6593 -52.9522
4 38.017 32.586 -54.31
4 38.017 35.3015 -51.5945
4 40.7325 32.586 -51.5945
4 40.7325 35.3015 -54.31
4 39.3747 33.9438 -52.9522
4 39.3747 36.6593 -50.2368
4 42.0902 33.9438 -50.2368
4 42.0902 36.6593 -52.9522
4 43.448 32.586 -54.31
4 43.448 35.3015 -51.5945
4 46.1635 32.586 -51.5945
4 46.1635 35.3015 -54.31
4 44.8058 33.9438 -52.9522
4 44.8058 36.6593 -50.2368
4 47.5213 33.9438 -50.2368
4 47.5213 36.6593 -52.9522
4 48.879 32.586 -54.31
4 48.879 35.3015 -51.5945
4 51.5945 32.586 -51.5945
4 51.5945 35.3015 -54.31
4 50.2368 33.9438 -52.9522
4 50.2368 36.6593 -50.2368
4 52.9522 33.9438 -50.2368
4 52.9522 36.6593 -52.9522
4 0 38.017 -54.31
4 0 40.7325 -51.5945
4 2.7155 38.017 -51.5945
4 2.7155 40.7325 -54.31
4 1.35775 39.3747 -52.9522
4 1.35775 42.0902 -50.2368
4 4.07325 39.3747 -50.2368
4 4.07325 42.0902 -52.9522
4 5.431 38.017 -54.31
4 5.431 40.7325 -51.5945
4 8.1465 38.017 -51.5945
4 8.1465 40.7325 -54.31
4 6.78875 39.3747 -52.9522
4 6.78875 42.0902 -50.2368
4 9.50425 39.3747 -50.2368
4 9.50425 42.0902 -52.9522
4 10.862 38.017 -54.31
4 10.862 40.7325 -51.5945
4 13.5775 38.017 -51.5945
4 13.5775 40.7325 -54.31
4 12.2197 39.3747 -52.9522
4 12.2197 42.0902 -50.2368
4 14.9352 39.3747 -50.2368
4 14.9352 42.0902 -52.9522
4 16.293 38.017 -54.31
4 16.293 40.7325 -51.5945
4 19.0085 38.017 -51.5945
4 19.0085 40.7325 -54.31
4 17.6507 39.3747 -52.9522
4 17.6507 42.0902 -50.2368
4 20.3663 39.3747 -50.2368
4 20.3663 42.0902 -52.9522
4 21.724 38.017 -54.31
4 21.724 40.7325 -51.5945
4 24.4395 38.017 -51.5945
4 24.4395 40.7325 -54.31
4 23.0817 39.3747 -52.9522
4 23.0817 42.0902 -50.2368
4 25.7973 39.3747 -50.2368
4 25.7973 42.0902 -52.9522
4 27.155 38.017 -54.31
4 27.155 40.7325 -51.5945
4 29.8705 38.017 -51.5945
4 29.8705 40.7325 -54.31
4 28.5128 39.3747 -52.9522
4 28.5128 42.0902 -50.2368
4 31.2282 39.3747 -50.2368
4 31.2282 42.0902 -52.9522
4 32.586 38.017 -54.31
4 32.586 40.7325 -51.5945
4 35.3015 38.017 -51.5945
4 35.3015 40.7325 -54.31
4 33.9438 39.3747 -52.9522
4 33.9438 42.0902 -50.2368
4 36.6593 39.3747 -50.2368
4 36.6593 42.0902 -52.9522
4 38.017 38.017 -54.31
4 38.017 40.7325 -51.5945
4 40.7325 38.017 -51.5945
4 40.7325 40.7325 -54.31
4 39.3747 39.3747 -52.9522
4 39.3747 42.0902 -50.2368
4 42.0902 39.3747 -50.2368
4 42.0902 42.0902 -52.9522
4 43.448 38.017 -54.31
4 43.448 40.7325 -51.5945
4 46.1635 38.017 -51.5945
4 46.1635 40.7325 -54.31
4 44.8058 39.3747 -52.9522
4 44.8058 42.0902 -50.2368
4 47.5213 39.3747 -50.2368
4 47.5213 42.0902 -52.9522
4 48.879 38.017 -54.31
4 48.879 40.7325 -51.5945
4 51.5945 38.017 -51.5945
4 51.5945 40.7325 -54.31
4 50.2368 39.3747 -52.9522
4 50.2368 42.0902 -50.2368
4 52.9522 39.3747 -50.2368
4 52.9522 42.0902 -52.9522
4 0 43.448 -54.31
4 0 46.1635 -51.5945
4 2.7155 43.448 -51.5945
4 2.7155 46.1635 -54.31
4 1.35775 44.8058 -52.9522
4 1.35775 47.5213 -50.2368
4 4.07325 44.8058 -50.2368
4 4.07325 47.5213 -52.9522
4 5.431 43.448 -54.31
4 5.431 46.1635 -51.5945
4 8.1465 43.448 -51.5945
4 8.1465 46.1635 -54.31
4 6.78875 44.8058 -52.9522
4 6.78875 47.5213 -50.2368
4 9.50425 44.8058 -50.2368
4 9.50425 47.5213 -52.9522
4 10.862 43.448 -54.31
4 10.862 46.1635 -51.5945
4 13.5775 43.448 -51.5945
4 13.5775 46.1635 -54.31
4 12.2197 44.8058 -52.9522
4 12.2197 47.5213 -50.2368
4 14.9352 44.8058 -50.2368
4 14.9352 47.5213 -52.9522
4 16.293 43.448 -54.31
4 16.293 46.1635 -51.5945
4 19.0085 43.448 -51.5945
4 19.0085 46.1635 -54.31
4 17.6507 44.8058 -52.9522
4 17.6507 47.5213 -50.2368
4 20.3663 44.8058 -50.2368
4 20.3663 47.5213 -52.9522
4 21.724 43.448 -54.31
4 21.724 46.1635 -51.5945
4 24.4395 43.448 -51.5945
4 24.4395 46.1635 -54.31
4 23.0817 44.8058 -52.9522
4 23.0817 47.5213 -50.2368
4 25.7973 44.8058 -50.2368
4 25.7973 47.5213 -52.9522
4 27.155 43.448 -54.31
4 27.155 46.1635 -51.5945
4 29.8705 43.448 -51.5945
4 29.8705 46.1635 -54.31
4 28.5128 44.8058 -52.9522
4 28.5128 47.5213 -50.2368
4 31.2282 44.8058 -50.2368
4 31.2282 47.5213 -52.9522
4 32.586 43.448 -54.31
4 32.586 46.1635 -51.5945
4 35.3015 43.448 -51.5945
4 35.3015 46.1635 -54.31
4 33.9438 44.8058 -52.9522
4 33.9438 47.5213 -50.2368
4 36.6593 44.8058 -50.2368
4 36.6593 47.5213 -52.9522
4 38.017 43.448 -54.31
4 38.017 46.1635 -51.5945
4 40.7325 43.448 -51.5945
4 40.7325 46.1635 -54.31
4 39.3747 44.8058 -52.9522
4 39.3747 47.5213 -50.2368
4 42.0902 44.8058 -50.2368
4 42.0902 47.5213 -52.9522
4 43.448 43.448 -54.31
4 43.448 46.1635 -51.5945
4 46.1635 43.448 -51.5945
4 46.1635 46.1635 -54.31
4 44.8058 44.8058 -52.9522
4 44.8058 47.5213 -50.2368
4 47.5213 44.8058 -50.2368
4 47.5213 47.5213 -52.9522
4 48.879 43.448 -54.31
4 48.879 46.1635 -51.5945
4 51.5945 43.448 -51.5945
4 51.5945 46.1635 -54.31
4 50.2368 44.8058 -52.9522
4 50.2368 47.5213 -50.2368
4 52.9522 44.8058 -50.2368
4 52.9522 47.5213 -52.9522
4 0 48.879 -54.31
4 0 51.5945 -51.5945
4 2.7155 48.879 -51.5945
4 2.7155 51.5945 -54.31
4 1.35775 50.2368 -52.9522
4 1.35775 52.9522 -50.2368
4 4.07325 50.2368 -50.2368
4 4.07325 52.9522 -52.9522
4 5.431 48.879 -54.31
4 5.431 51.5945 -51.5945
4 8.1465 48.879 -51.5945
4 8.1465 51.5945 -54.31
4 6.78875 50.2368 -52.9522
4 6.78875 52.9522 -50.2368
4 9.50425 50.2368 -50.2368
4 9.50425 52.9522 -52.9522
4 10.862 48.879 -54.31
4 10.862 51.5945 -51.5945
4 13.5775 48.879 -51.5945
4 13.5775 51.5945 -54.31
4 12.2197 50.2368 -52.9522
4 12.2197 52.9522 -50.2368
4 14.9352 50.2368 -50.2368
4 14.9352 52.9522 -52.9522
4 16.293 48.879 -54.31
4 16.293 51.5945 -51.5945
4 19.0085 48.879 -51.5945
4 19.0085 51.5945 -54.31
4 17.6507 50.2368 -52.9522
4 17.6507 52.9522 -50.2368
4 20.3663 50.2368 -50.2368
4 20.3663 52.9522 -52.9522
4 21.724 48.879 -54.31
4 21.724 51.5945 -51.5945
4 24.4395 48.879 -51.5945
4 24.4395 51.5945 -54.31
4 23.0817 50.2368 -52.9522
4 23.0817 52.9522 -50.2368
4 25.7973 50.2368 -50.2368
4 25.7973 52.9522 -52.9522
4 27.155 48.879 -54.31
4 27.155 51.5945 -51.5945
4 29.8705 48.879 -51.5945
4 29.8705 51.5945 -54.31
4 28.5128 50.2368 -52.9522
4 28.5128 52.9522 -50.2368
4 31.2282 50.2368 -50.2368
4 31.2282 52.9522 -52.9522
4 32.586 48.879 -54.31
4 32.586 51.5945 -51.5945
4 35.3015 48.879 -51.5945
4 35.3015 51.5945 -54.31
4 33.9438 50.2368 -52.9522
4 33.9438 52.9522 -50.2368
4 36.6593 50.2368 -50.2368
4 36.6593 52.9522 -52.9522
4 38.017 48.879 -54.31
4 38.017 51.5945 -51.5945
4 40.7325 48.879 -51.5945
4 40.7325 51.5945 -54.31
4 39.3747 50.2368 -52.9522
4 39.3747 52.9522 -50.2368
4 42.0902 50.2368 -50.2368
4 42.0902 52.9522 -52.9522
4 43.448 48.879 -54.31
4 43.448 51.5945 -51.5945
4 46.1635 48.879 -51.5945
4 46.1635 51.5945 -54.31
4 44.8058 50.2368 -52.9522
4 44.8058 52.9522 -50.2368
4 47.5213 50.2368 -50.2368
4 47.5213 52.9522 -52.9522
4 48.879 48.879 -54.31
4 48.879 51.5945 -51.5945
4 51.5945 48.879 -51.5945
4 51.5945 51.5945 -54.31
4 50.2368 50.2368 -52.9522
4 50.2368 52.9522 -50.2368
4 52.9522 50.2368 -50.2368
4 52.9522 52.9522 -52.9522
4 0 0 -48.879
3 2.53803 2.65998 -34.4017
4 2.7155 2.7155 -48.879
4 1.35775 1.35775 -47.5213
3 1.02919 6.51515 -33.3497
3 3.91659 4.07111 -33.1997
4 4.07325 4.07325 -47.5213
4 5.431 0 -48.879
3 5.3124 5.3682 -34.4644
3 8.05625 2.66565 -34.446
4 8.1465 2.7155 -48.879
4 6.78875 1.35775 -47.5213
3 6.5101 6.69781 -32.9756
3 9.30367 4.10659 -33.0439
4 9.50425 4.07325 -47.5213
4 10.862 0 -48.879
3 10.7317 5.36857 -34.3546
3 13.4259 2.66466 -34.3744
4 13.5775 2.7155 -48.879
4 12.2197 1.35775 -47.5213
3 12.12 6.795 -33.0366
3 14.7875 4.03949 -33.0936
4 14.9352 4.07325 -47.5213
4 16.293 0 -48.879
3 16.2101 5.40409 -34.4153
1 18.9779 2.63884 -34.394
4 19.0085 2.7155 -48.879
4 17.6507 1.35775 -47.5213
1 17.6384 6.75022 -33.0515
1 20.2903 3.9382 -33.0248
4 20.3663 4.07325 -47.5213
4 21.724 0 -48.879
1 21.6737 5.38542 -34.3921
1 24.4293 2.70332 -34.3854
4 24.4395 2.7155 -48.879
4 23.0817 1.35775 -47.5213
1 23.0302 6.73951 -33.0774
1 25.7693 4.06145 -33.0022
4 25.7973 4.07325 -47.5213
4 27.155 0 -48.879
1 27.1215 5.41638 -34.3694
1 29.889 2.59941 -34.355
4 29.8705 2.7155 -48.879
4 28.5128 1.35775 -47.5213
1 28.4777 6.80537 -33.122
1 31.2377 4.03128 -33.0572
4 31.2282 4.07325 -47.5213
4 32.586 0 -48.879
1 32.5657 5.41268 -34.3612
1 35.3203 2.75691 -34.2847
4 35.3015 2.7155 -48.879
4 33.9438 1.35775 -47.5213
1 33.9245 6.83121 -32.9724
1 36.6829 4.04683 -32.9377
4 36.6593 4.07325 -47.5213
4 38.017 0 -48.879
1 38.0455 5.38105 -34.3021
1 40.7387 2.64916 -34.3484
4 40.7325 2.7155 -48.879
4 39.3747 1.35775 -47.5213
1 39.4191 6.7166 -32.8891
1 42.2041 3.94902 -33.0349
4 42.0902 4.07325 -47.5213
4 43.448 0 -48.879
1 43.4062 5.41497 -34.3897
1 46.1948 2.65541 -34.3412
4 46.1635 2.7155 -48.879
4 44.8058 1.35775 -47.5213
1 44.805 6.76867 -33.0436
1 47.6373 4.00855 -32.9974
4 47.5213 4.07325 -47.5213
4 48.879 0 -48.879
1 48.8763 5.46097 -34.2642
1 51.5886 2.76753 -34.3597
4 51.5945 2.7155 -48.879
4 50.2368 1.35775 -47.5213
1 50.4217 6.70666 -32.9934
1 53.2629 3.94457 -33.1298
4 52.9522 4.07325 -47.5213
4 0 5.431 -48.879
3 2.49145 7.98185 -34.3586
4 2.7155 8.1465 -48.879
4 1.35775 6.78875 -47.5213
3 0.92556 12.0743 -33.4079
3 3.75974 9.45584 -33.0072
4 4.07325 9.50425 -47.5213
4 5.431 5.431 -48.879
3 5.22025 10.6925 -34.3239
3 7.96593 8.00552 -34.3097
4 8.1465 8.1465 -48.879
4 6.78875 6.78875 -47.5213
3 6.61444 12.0594 -33.1763
3 9.29193 9.40091 -33.0694
4 9.50425 9.50425 -47.5213
4 10.862 5.431 -48.879
3 10.7242 10.7574 -34.3013
3 13.5638 8.11626 -34.3147
4 13.5775 8.1465 -48.879
4 12.2197 6.78875 -47.5213
3 12.0975 12.1322 -33.0348
3 14.8849 9.49201 -32.9493
4 14.9352 9.50425 -47.5213
4 16.293 5.431 -48.879
3 16.2941 10.8766 -34.2693
1 19.0053 8.16096 -34.367
4 19.0085 8.1465 -48.879
4 17.6507 6.78875 -47.5213
1 17.65 12.2115 -32.9527
1 20.318 9.43326 -32.9007
4 20.3663 9.50425 -47.5213
4 21.724 5.431 -48.879
1 21.6788 10.8217 -34.2376
1 24.3941 8.09784 -34.338
4 24.4395 8.1465 -48.879
4 23.0817 6.78875 -47.5213
1 23.0735 12.1743 -32.9526
1 25.8017 9.48584 -33.1313
4 25.7973 9.50425 -47.5213
4 27.155 5.431 -48.879
1 27.1704 10.8703 -34.3724
1 29.7937 8.11011 -34.3689
4 29.8705 8.1465 -48.879
4 28.5128 6.78875 -47.5213
1 28.5195 12.1912 -33.0676
1 31.1416 9.42634 -32.944
4 31.2282 9.50425 -47.5213
4 32.586 5.431 -48.879
1 32.431 10.7528 -34.3529
1 35.3124 8.1783 -34.3819
4 35.3015 8.1465 -48.879
4 33.9438 6.78875 -47.5213
1 33.9334 12.0626 -33.077
1 36.6382 9.47608 -32.9519
4 36.6593 9.50425 -47.5213
4 38.017 5.431 -48.879
1 38.0526 10.9006 -34.2802
1 40.7241 8.1202 -34.2794
4 40.7325 8.1465 -48.879
4 39.3747 6.78875 -47.5213
1 39.437 12.2593 -33.0282
1 42.0816 9.43749 -32.8756
4 42.0902 9.50425 -47.5213
4 43.448 5.431 -48.879
1 43.4413 10.8502 -34.257
1 46.2167 8.1301 -34.3357
4 46.1635 8.1465 -48.879
4 44.8058 6.78875 -47.5213
1 44.8409 12.1488 -33.0178
1 47.5634 9.37358 -32.9871
4 47.5213 9.50425 -47.5213
4 48.879 5.431 -48.879
1 48.87 10.7829 -34.3063
1 51.619 8.06838 -34.3382
4 51.5945 8.1465 -48.879
4 50.2368 6.78875 -47.5213
1 50.4395 12.0958 -32.9773
1 53.0505 9.4538 -33.2855
4 52.9522 9.50425 -47.5213
4 0 10.862 -48.879
3 2.52478 13.427 -34.4038
4 2.7155 13.5775 -48.879
4 1.35775 12.2197 -47.5213
3 0.980374 17.8296 -33.0143
3 3.83409 14.896 -33.1739
4 4.07325 14.9352 -47.5213
4 5.431 10.862 -48.879
3 5.35607 16.2475 -34.3575
3 8.0925 13.5039 -34.3825
4 8.1465 13.5775 -48.879
4 6.78875 12.2197 -47.5213
3 6.59494 17.6995 -33.0235
3 9.44225 14.9226 -33.0328
4 9.50425 14.9352 -47.5213
4 10.862 10.862 -48.879
3 10.7643 16.222 -34.3372
3 13.4853 13.5569 -34.3582
4 13.5775 13.5775 -48.879
4 12.2197 12.2197 -47.5213
3 12.1364 17.4987 -33.0216
3 14.8619 14.9774 -33.0153
4 14.9352 14.9352 -47.5213
4 16.293 10.862 -48.879
3 16.2511 16.223 -34.3413
1 18.9146 13.5323 -34.293
4 19.0085 13.5775 -48.879
4 17.6507 12.2197 -47.5213
1 17.5404 17.6675 -33.0734
1 20.2908 14.9408 -32.9932
4 20.3663 14.9352 -47.5213
4 21.724 10.862 -48.879
1 21.6588 16.3233 -34.3592
1 24.4398 13.5748 -34.3839
4 24.4395 13.5775 -48.879
4 23.0817 12.2197 -47.5213
1 22.9094 17.7561 -32.998
1 25.8174 14.9192 -33.0395
4 25.7973 14.9352 -47.5213
4 27.155 10.862 -48.879
1 27.2035 16.3317 -34.3088
1 29.8398 13.5585 -34.4083
4 29.8705 13.5775 -48.879
4 28.5128 12.2197 -47.5213
1 28.6291 17.5828 -32.9515
1 31.238 14.8824 -33.0273
4 31.2282 14.9352 -47.5213
4 32.586 10.862 -48.879
1 32.5796 16.3012 -34.3633
1 35.2478 13.5136 -34.3136
4 35.3015 13.5775 -48.879
4 33.9438 12.2197 -47.5213
1 33.9304 17.5768 -32.9742
1 36.6304 14.8799 -33.0835
4 36.6593 14.9352 -47.5213
4 38.017 10.862 -48.879
1 37.9825 16.3124 -34.3278
1 40.7622 13.6213 -34.3931
4 40.7325 13.5775 -48.879
4 39.3747 12.2197 -47.5213
1 39.3814 17.5914 -33.0661
1 42.1106 14.8812 -32.9855
4 42.0902 14.9352 -47.5213
4 43.448 10.862 -48.879
1 43.4845 16.2349 -34.3579
1 46.1463 13.5565 -34.3952
4 46.1635 13.5775 -48.879
4 44.8058 12.2197 -47.5213
1 44.8816 17.5475 -32.983
1 47.5758 14.8356 -33.0627
4 47.5213 14.9352 -47.5213
4 48.879 10.862 -48.879
1 48.9286 16.3348 -34.3186
1 51.722 13.5945 -34.3675
4 51.5945 13.5775 -48.879
4 50.2368 12.2197 -47.5213
1 50.4779 17.5153 -33.0123
1 53.1585 14.65 -32.9328
4 52.9522 14.9352 -47.5213
4 0 16.293 -48.879
3 2.53995 18.7899 -34.4644
4 2.7155 19.0085 -48.879
4 1.35775 17.6507 -47.5213
3 0.834837 22.1133 -33.9836
3 3.71005 20.2687 -33.1872
4 4.07325 20.3663 -47.5213
4 5.431 16.293 -48.879
3 5.29765 21.6012 -34.3513
3 8.10321 18.8849 -34.3824
4 8.1465 19.0085 -48.879
4 6.78875 17.6507 -47.5213
3 6.60755 22.9829 -32.9861
3 9.38521 20.2306 -33.1407
4 9.50425 20.3663 -47.5213
4 10.862 16.293 -48.879
3 10.7245 21.6615 -34.4051
3 13.5059 18.8976 -34.3468
4 13.5775 19.0085 -48.879
4 12.2197 17.6507 -47.5213
3 12.0682 22.9871 -32.9793
3 14.814 20.2118 -33.0684
4 14.9352 20.3663 -47.5213
4 16.293 16.293 -48.879
3 16.2468 21.656 -34.3618
1 18.9303 18.9677 -34.3597
4 19.0085 19.0085 -48.879
4 17.6507 17.6507 -47.5213
1 17.519 23.0178 -33.0762
1 20.2725 20.428 -32.906
4 20.3663 20.3663 -47.5213
4 21.724 16.293 -48.879
1 21.6487 21.7405 -34.284
1 24.4371 18.9781 -34.352
4 24.4395 19.0085 -48.879
4 23.0817 17.6507 -47.5213
1 23.0652 23.0646 -32.9389
1 25.7773 20.4283 -32.9874
4 25.7973 20.3663 -47.5213
4 27.155 16.293 -48.879
1 27.1853 21.7561 -34.3105
1 29.8516 18.9954 -34.3088
4 29.8705 19.0085 -48.879
4 28.5128 17.6507 -47.5213
1 28.5776 22.9978 -33.0068
1 31.2985 20.3288 -33.0156
4 31.2282 20.3663 -47.5213
4 32.586 16.293 -48.879
1 32.597 21.7205 -34.4184
1 35.3449 18.9652 -34.2967
4 35.3015 19.0085 -48.879
4 33.9438 17.6507 -47.5213
1 33.946 23.0907 -32.9693
1 36.6988 20.378 -32.9923
4 36.6593 20.3663 -47.5213
4 38.017 16.293 -48.879
1 38.0079 21.7847 -34.3682
1 40.7205 19.0293 -34.3868
4 40.7325 19.0085 -48.879
4 39.3747 17.6507 -47.5213
1 39.437 22.9274 -33.0194
1 42.2241 20.2703 -33.0128
4 42.0902 20.3663 -47.5213
4 43.448 16.293 -48.879
1 43.4564 21.6744 -34.3859
1 46.2223 19.002 -34.3854
4 46.1635 19.0085 -48.879
4 44.8058 17.6507 -47.5213
1 44.9042 22.991 -33.0107
1 47.6494 20.2099 -33.0305
4 47.5213 20.3663 -47.5213
4 48.879 16.293 -48.879
1 48.8534 21.6964 -34.3382
1 51.5823 18.9962 -34.3775
4 51.5945 19.0085 -48.879
4 50.2368 17.6507 -47.5213
1 50.2782 22.9917 -33.1585
1 53.097 20.3799 -33.3493
4 52.9522 20.3663 -47.5213
4 0 21.724 -48.879
3 2.3668 24.1795 -34.3891
4 2.7155 24.4395 -48.879
4 1.35775 23.0817 -47.5213
3 0.906639 28.6606 -33.0101
3 3.76297 25.6361 -33.1362
4 4.07325 25.7973 -47.5213
4 5.431 21.724 -48.879
3 5.16501 26.976 -34.3935
3 7.96235 24.2835 -34.361
4 8.1465 24.4395 -48.879
4 6.78875 23.0817 -47.5213
3 6.5404 28.3003 -33.0499
3 9.19639 25.6666 -32.9953
4 9.50425 25.7973 -47.5213
4 10.862 21.724 -48.879
3 10.7128 27.0282 -34.2724
3 13.5175 24.3389 -34.3882
4 13.5775 24.4395 -48.879
4 12.2197 23.0817 -47.5213
3 11.971 28.4769 -32.9167
3 14.8954 25.6951 -33.0151
4 14.9352 25.7973 -47.5213
4 16.293 21.724 -48.879
3 16.2659 27.0667 -34.3274
1 18.9721 24.3698 -34.3794
4 19.0085 24.4395 -48.879
4 17.6507 23.0817 -47.5213
1 17.5451 28.4644 -32.988
1 20.328 25.6702 -32.9156
4 20.3663 25.7973 -47.5213
4 21.724 21.724 -48.879
1 21.7405 27.0616 -34.3094
1 24.4032 24.4235 -34.3136
4 24.4395 24.4395 -48.879
4 23.0817 23.0817 -47.5213
1 23.0749 28.4515 -32.9643
1 25.7988 25.6715 -32.953
4 25.7973 25.7973 -47.5213
4 27.155 21.724 -48.879
1 27.1195 27.1272 -34.333
1 29.9072 24.411 -34.3352
4 29.8705 24.4395 -48.879
4 28.5128 23.0817 -47.5213
1 28.5363 28.3596 -32.9278
1 31.173 25.8683 -32.9828
4 31.2282 25.7973 -47.5213
4 32.586 21.724 -48.879
1 32.5434 27.1596 -34.3525