ITEM: TIMESTEP
0
ITEM: NUMBER OF ATOMS
100
ITEM: BOX BOUNDS pp pp pp
0.0000000000000000e+00 1.0000000000000000e+02
0.0000000000000000e+00 1.0000000000000000e+02
0.0000000000000000e+00 1.0000000000000000e+02
ITEM: ATOMS id type xs ys zs
79 1 0.639916 0.0643187 0.00513091
87 1 0.46978 0.58815 0.0389832
80 1 0.235241 0.695545 0.0228721
54 1 0.314674 0.733446 0.0252788
31 1 0.275706 0.790684 0.0300738
96 1 0.40429 0.893737 0.0347676
78 1 0.399667 0.204977 0.0507907
9 1 0.12617 0.531389 0.0570933
26 1 0.0786398 0.6987 0.0485978
2 1 0.949422 0.930865 0.0515216
86 1 0.518625 0.53621 0.0838621
43 1 0.261601 0.727439 0.0720495
99 1 0.676202 0.928367 0.0712995
98 1 0.137735 0.913138 0.110589
30 1 0.417451 0.0945514 0.124548
12 1 0.461659 0.0968729 0.142176
13 1 0.553942 0.0975873 0.149666
28 1 0.672775 0.337607 0.154207
56 1 0.41427 0.631175 0.159251
33 1 0.342161 0.698885 0.159994
60 1 0.695954 0.891842 0.181625
65 1 0.719154 0.818361 0.198548
72 1 0.0932276 0.876254 0.201529
91 1 0.117514 0.049398 0.232325
46 1 0.159345 0.110564 0.249641
14 1 0.432333 0.229085 0.234817
52 1 0.520472 0.57055 0.241302
75 1 0.030639 0.950452 0.247325
58 1 0.741079 0.311195 0.251974
83 1 0.408569 0.815926 0.266449
45 1 0.0834251 0.125382 0.291614
61 1 0.566919 0.203801 0.27725
36 1 0.469287 0.303046 0.294926
16 1 0.583709 0.39753 0.286779
21 1 0.790774 0.543005 0.283237
42 1 0.00262612 0.137224 0.327736
67 1 0.503352 0.845441 0.321549
29 1 0.764502 0.979016 0.330066
68 1 0.2806 0.0418494 0.362262
48 1 0.329142 0.883462 0.341125
3 1 0.923121 0.887449 0.356524
73 1 0.0950941 0.2473 0.377691
7 1 0.60454 0.498803 0.378033
17 1 0.893567 0.17513 0.404572
20 1 0.211121 0.307516 0.423978
51 1 0.875566 0.645589 0.420927
82 1 0.45599 0.826049 0.412531
24 1 0.0465293 0.0175784 0.439914
90 1 0.586792 0.210176 0.433338
93 1 0.410324 0.312932 0.456165
70 1 0.159203 0.716634 0.471004
57 1 0.532807 0.889241 0.469372
63 1 0.892437 0.18043 0.482757
47 1 0.7243 0.314424 0.522421
59 1 0.924056 0.608527 0.520777
76 1 0.799274 0.391298 0.53769
44 1 0.936134 0.606506 0.550609
4 1 0.10589 0.695043 0.583283
62 1 0.735114 0.060844 0.604623
11 1 0.942425 0.335136 0.624291
77 1 0.957911 0.603417 0.624942
89 1 0.782038 0.71343 0.624418
22 1 0.363854 0.297176 0.64236
10 1 0.566858 0.174015 0.666624
71 1 0.168347 0.412071 0.679841
25 1 0.636726 0.455505 0.673117
34 1 0.0255786 0.899724 0.664478
84 1 0.214406 0.528452 0.69882
19 1 0.510842 0.713494 0.691629
8 1 0.598639 0.325384 0.724944
23 1 0.137112 0.448844 0.721726
40 1 0.674213 0.500489 0.712111
6 1 0.307225 0.530595 0.709502
32 1 0.450335 0.78781 0.722874
88 1 0.191413 0.0822721 0.747057
15 1 0.574825 0.0763213 0.731575
81 1 0.411105 0.443788 0.742515
69 1 0.539102 0.680058 0.742319
95 1 0.0355639 0.723135 0.731564
50 1 0.925152 0.0258683 0.768422
39 1 0.901424 0.224833 0.765078
97 1 0.339292 0.486212 0.765225
53 1 0.567778 0.640674 0.800459
100 1 0.330561 0.741882 0.815994
85 1 0.0652732 0.0459243 0.849677
74 1 0.845264 0.345799 0.851254
41 1 0.456876 0.719513 0.850301
35 1 0.88631 0.219009 0.882517
66 1 0.00330208 0.49806 0.896383
37 1 0.818863 0.631516 0.890791
55 1 0.860701 0.796507 0.888404
38 1 0.521963 0.624081 0.931035
27 1 0.783289 0.73707 0.928582
64 1 0.695725 0.0541423 0.96952
49 1 0.279711 0.110311 0.993153
5 1 0.242648 0.177783 0.996805
1 1 0.910652 0.3348 0.982207
92 1 0.692197 0.75998 0.984376
18 1 0.635562 0.886772 0.980693
94 1 0.758966 0.935562 0.991851
ITEM: TIMESTEP
50
ITEM: NUMBER OF ATOMS
100
ITEM: BOX BOUNDS pp pp pp
0.0000000000000000e+00 1.0000000000000000e+02
0.0000000000000000e+00 1.0000000000000000e+02
0.0000000000000000e+00 1.0000000000000000e+02
ITEM: ATOMS id type xs ys zs
79 1 0.629296 0.0825143 0.033188
87 1 0.513108 0.59992 0.0552404
80 1 0.189883 0.722727 0.0265322
54 1 0.356983 0.747341 0.0359503
31 1 0.302491 0.79794 0.0113468
96 1 0.401869 0.898725 0.990377
78 1 0.36272 0.15463 0.0408573
9 1 0.166121 0.584605 0.0454501
26 1 0.0815101 0.692057 0.0350208
2 1 0.893651 0.870597 0.991299
86 1 0.544527 0.523806 0.0894912
43 1 0.238229 0.75254 0.0400929
99 1 0.704548 0.950176 0.081414
98 1 0.100503 0.870706 0.146379
30 1 0.373021 0.0741331 0.121648
12 1 0.500474 0.145943 0.0965069
13 1 0.58998 0.140726 0.136181
28 1 0.679501 0.379279 0.207046
56 1 0.371164 0.588856 0.134429
33 1 0.297381 0.695377 0.189415
60 1 0.742349 0.836779 0.207626
65 1 0.757819 0.849558 0.237833
72 1 0.118556 0.832359 0.222485
91 1 0.0973552 0.0483165 0.271966
46 1 0.146821 0.0932748 0.237869
14 1 0.380121 0.252467 0.248852
52 1 0.460869 0.530334 0.22318
75 1 0.0560651 0.992493 0.223765
58 1 0.715265 0.352129 0.231676
83 1 0.362806 0.789501 0.255282
45 1 0.118786 0.0997557 0.347367
61 1 0.601689 0.220229 0.270223
36 1 0.416217 0.326672 0.247826
16 1 0.557226 0.400901 0.31088
21 1 0.837203 0.521974 0.292563
42 1 0.990011 0.176535 0.367302
67 1 0.508259 0.89016 0.318448
29 1 0.768717 0.000957488 0.345549
68 1 0.30023 0.0245457 0.343315
48 1 0.333713 0.900589 0.393478
3 1 0.955433 0.893204 0.393895
73 1 0.134483 0.217598 0.387785
7 1 0.576665 0.461596 0.41859
17 1 0.900392 0.17179 0.385677
20 1 0.215716 0.275927 0.451874
51 1 0.871769 0.667299 0.453279
82 1 0.413352 0.870286 0.38051
24 1 0.0329421 0.994193 0.424302
90 1 0.553234 0.232681 0.381188
93 1 0.397934 0.351141 0.434758
70 1 0.184172 0.766407 0.443776
57 1 0.562969 0.869792 0.471376
63 1 0.89692 0.193375 0.511255
47 1 0.759416 0.328517 0.564145
59 1 0.902139 0.561768 0.568257
76 1 0.74414 0.389598 0.578043
44 1 0.886338 0.648303 0.560958
4 1 0.142929 0.683277 0.558839
62 1 0.735552 0.0683416 0.574392
11 1 0.990326 0.313813 0.671378
77 1 0.963315 0.639202 0.596353
89 1 0.804058 0.663667 0.5637
22 1 0.36133 0.256109 0.608105
10 1 0.582245 0.177228 0.634711
71 1 0.17982 0.385491 0.664521
25 1 0.649453 0.409033 0.698266
34 1 0.984119 0.853876 0.668338
84 1 0.258906 0.517342 0.746356
19 1 0.476703 0.719654 0.642708
8 1 0.569935 0.373876 0.696205
23 1 0.148487 0.410908 0.692612
40 1 0.670676 0.455794 0.668129
6 1 0.273858 0.517685 0.663311
32 1 0.444433 0.768554 0.740608
88 1 0.181687 0.0558547 0.707317
15 1 0.547071 0.0422322 0.789561
81 1 0.379617 0.437976 0.766877
69 1 0.595197 0.694767 0.744948
95 1 0.995587 0.680653 0.781976
50 1 0.946027 0.0239927 0.786989
39 1 0.934716 0.27691 0.740404
97 1 0.342626 0.50111 0.719076
53 1 0.550364 0.668646 0.752293
100 1 0.351173 0.714709 0.813121
85 1 0.0159716 0.105104 0.834927
74 1 0.874172 0.295172 0.899007
41 1 0.443077 0.756123 0.799508
35 1 0.907783 0.213065 0.896688
66 1 0.00343389 0.522367 0.871065
37 1 0.861856 0.657999 0.933237
55 1 0.827082 0.753857 0.85772
38 1 0.553354 0.609454 0.893169
27 1 0.840738 0.701102 0.912543
64 1 0.681024 0.0820367 0.91595
49 1 0.332024 0.0861886 0.03148
5 1 0.224688 0.217827 0.0601896
1 1 0.875097 0.371482 0.0261232
92 1 0.702054 0.798373 0.971131
18 1 0.662846 0.869651 0.00316843
94 1 0.743968 0.939809 0.00845895
ITEM: TIMESTEP
100
ITEM: NUMBER OF ATOMS
100
ITEM: BOX BOUNDS pp pp pp
0.0000000000000000e+00 1.0000000000000000e+02
0.0000000000000000e+00 1.0000000000000000e+02
0.0000000000000000e+00 1.0000000000000000e+02
ITEM: ATOMS id type xs ys zs
79 1 0.618717 0.100639 0.0611365
87 1 0.556269 0.611644 0.0714346
80 1 0.1447 0.749804 0.0301782
54 1 0.399127 0.761183 0.0465806
31 1 0.329173 0.805167 0.992692
96 1 0.399457 0.903694 0.946157
78 1 0.325916 0.104479 0.0309624
9 1 0.205918 0.637615 0.033852
26 1 0.0843693 0.68544 0.0214963
2 1 0.838096 0.810563 0.93131
86 1 0.570329 0.51145 0.0950985
43 1 0.214948 0.777545 0.00826002
99 1 0.732785 0.971901 0.0914894
98 1 0.0634145 0.828439 0.182029
30 1 0.328763 0.0537939 0.118759
12 1 0.539139 0.194824 0.0510145
13 1 0.625878 0.183697 0.122749
28 1 0.6862 0.42079 0.25968
56 1 0.328225 0.5467 0.109704
33 1 0.252774 0.691882 0.218723
60 1 0.788566 0.781929 0.233527
65 1 0.796335 0.880633 0.276966
72 1 0.143786 0.788633 0.24336
91 1 0.077275 0.0472393 0.311452
46 1 0.134346 0.0760524 0.226142
14 1 0.32811 0.275758 0.262833
52 1 0.401497 0.490273 0.205129
75 1 0.0813928 0.0343713 0.200295
58 1 0.68955 0.392904 0.211457
83 1 0.31722 0.763178 0.244157
45 1 0.154011 0.0742289 0.402903
61 1 0.636325 0.236594 0.263225
36 1 0.363353 0.350206 0.200909
16 1 0.530846 0.404259 0.334889
21 1 0.883453 0.501024 0.301854
42 1 0.977444 0.215693 0.406715
67 1 0.513147 0.934705 0.315359
29 1 0.772915 0.0228136 0.360971
68 1 0.319785 0.007309 0.32444
48 1 0.338268 0.91765 0.445628
3 1 0.987621 0.898936 0.43112
73 1 0.17372 0.18801 0.397839
7 1 0.548898 0.424533 0.45899
17 1 0.90719 0.168464 0.366855
20 1 0.220294 0.244459 0.479662
51 1 0.867986 0.688925 0.485506
82 1 0.370878 0.914351 0.348614
24 1 0.0194076 0.970898 0.40875
90 1 0.519806 0.255098 0.32924
93 1 0.385591 0.389201 0.413435
70 1 0.209044 0.815987 0.416654
57 1 0.593015 0.850418 0.473372
63 1 0.901387 0.20627 0.539642
47 1 0.794396 0.342555 0.605707
59 1 0.880307 0.51519 0.615553
76 1 0.68922 0.387904 0.61824
44 1 0.836735 0.689938 0.571267
4 1 0.179824 0.671557 0.53449
62 1 0.735989 0.0758101 0.544278
11 1 0.0380414 0.292573 0.718283
77 1 0.968699 0.674849 0.567874
89 1 0.825992 0.614096 0.503218
22 1 0.358815 0.215202 0.573982
10 1 0.597573 0.18043 0.602922
71 1 0.191248 0.359013 0.64926
25 1 0.662131 0.362741 0.723317
34 1 0.942819 0.808206 0.672182
84 1 0.303232 0.506275 0.793708
19 1 0.442698 0.725791 0.593976
8 1 0.541343 0.422181 0.667578
23 1 0.159818 0.373119 0.663611
40 1 0.667154 0.411272 0.624317
6 1 0.24062 0.504826 0.617299
32 1 0.438553 0.749372 0.758273
88 1 0.171998 0.0295396 0.667732
15 1 0.519424 0.00827506 0.847322
81 1 0.348252 0.432187 0.791144
69 1 0.651075 0.709419 0.747567
95 1 0.955765 0.638336 0.832192
50 1 0.966822 0.0221243 0.805484
39 1 0.96788 0.328785 0.715825
97 1 0.345946 0.51595 0.673106
53 1 0.533017 0.696511 0.704313
100 1 0.371706 0.687641 0.81026
85 1 0.966861 0.164055 0.820234
74 1 0.902968 0.24474 0.946575
41 1 0.429331 0.792592 0.748912
35 1 0.929172 0.207144 0.910805
66 1 0.00356518 0.546581 0.845846
37 1 0.904683 0.684379 0.975518
55 1 0.793593 0.711372 0.827155
38 1 0.584624 0.594884 0.85545
27 1 0.897965 0.665273 0.896566
64 1 0.666379 0.109823 0.862588
49 1 0.384134 0.0621598 0.0696585
5 1 0.206797 0.257715 0.123329
1 1 0.83968 0.408021 0.0698696
92 1 0.711873 0.836617 0.957936
18 1 0.690025 0.852596 0.0255566
94 1 0.729028 0.944039 0.0250029
ITEM: TIMESTEP
150
ITEM: NUMBER OF ATOMS
100
ITEM: BOX BOUNDS pp pp pp
0.0000000000000000e+00 1.0000000000000000e+02
0.0000000000000000e+00 1.0000000000000000e+02
0.0000000000000000e+00 1.0000000000000000e+02
ITEM: ATOMS id type xs ys zs
79 1 0.608357 0.11839 0.0885069
87 1 0.598537 0.623126 0.0872938
80 1 0.100451 0.776322 0.0337487
54 1 0.4404 0.774738 0.0569909
31 1 0.355302 0.812245 0.974424
96 1 0.397096 0.90856 0.902853
78 1 0.289873 0.0553644 0.0212721
9 1 0.244891 0.689528 0.0224938
26 1 0.0871694 0.67896 0.00825164
2 1 0.78369 0.75177 0.872562
86 1 0.595597 0.49935 0.10059
43 1 0.192148 0.802031 0.977086
99 1 0.760437 0.993176 0.101356
98 1 0.0270935 0.787046 0.216943
30 1 0.285421 0.0338755 0.115929
12 1 0.577005 0.242693 0.00646312
13 1 0.661034 0.225779 0.109594
28 1 0.692761 0.461443 0.311225
56 1 0.286174 0.505417 0.0854899
33 1 0.209089 0.688459 0.247424
60 1 0.833826 0.728213 0.258892
65 1 0.834054 0.911066 0.315289
72 1 0.168495 0.745812 0.263803
91 1 0.0576101 0.0461843 0.350122
46 1 0.122128 0.0591863 0.214658
14 1 0.277175 0.298567 0.276524
52 1 0.343354 0.45104 0.18745
75 1 0.106197 0.0753833 0.177311
58 1 0.664368 0.432836 0.191656
83 1 0.272577 0.7374 0.233262
45 1 0.188506 0.04923 0.457291
61 1 0.670245 0.25262 0.25637
36 1 0.311582 0.373254 0.154962
16 1 0.505012 0.407548 0.3584
21 1 0.928745 0.480508 0.310952
42 1 0.965137 0.254041 0.445313
67 1 0.517933 0.97833 0.312334
29 1 0.777027 0.0442175 0.376075
68 1 0.338935 0.990429 0.305957
48 1 0.342727 0.934357 0.4967
3 1 0.0191424 0.90455 0.467576
73 1 0.212146 0.159035 0.407686
7 1 0.521706 0.388237 0.498554
17 1 0.913848 0.165206 0.348422
20 1 0.224778 0.213643 0.506876
51 1 0.864281 0.710104 0.517066
82 1 0.329284 0.957505 0.317377
24 1 0.00615302 0.948085 0.393519
90 1 0.48707 0.277052 0.278366
93 1 0.373504 0.426474 0.392552
70 1 0.233403 0.864542 0.390092
57 1 0.622439 0.831444 0.475327
63 1 0.905761 0.218898 0.567442
47 1 0.828653 0.356303 0.64641
59 1 0.858926 0.469575 0.66187
76 1 0.698413 0.314092 0.673154
44 1 0.788159 0.730712 0.581363
4 1 0.215957 0.66008 0.510644
62 1 0.736417 0.0831242 0.514787
11 1 0.0847699 0.271772 0.764217
77 1 0.973971 0.709758 0.539985
89 1 0.847473 0.56555 0.443987
22 1 0.356352 0.17514 0.540566
10 1 0.612584 0.183565 0.571791
71 1 0.20244 0.333084 0.634314
25 1 0.674547 0.317407 0.74785
34 1 0.902374 0.763481 0.675947
84 1 0.346642 0.495437 0.840081
19 1 0.409395 0.7318 0.546252
8 1 0.513342 0.469486 0.639542
23 1 0.170914 0.336112 0.63521
40 1 0.600726 0.439825 0.565862
6 1 0.20807 0.492232 0.572238
32 1 0.432795 0.730587 0.775573
88 1 0.162509 0.00376884 0.628965
15 1 0.49235 0.97502 0.903888
81 1 0.317535 0.426518 0.81491
69 1 0.705797 0.723768 0.750132
95 1 0.916766 0.596893 0.88137
50 1 0.987186 0.0202946 0.823597
39 1 0.000357609 0.379587 0.691754
97 1 0.349198 0.530484 0.628087
53 1 0.51603 0.723799 0.657326
100 1 0.391814 0.661133 0.807457
85 1 0.918766 0.221786 0.805845
74 1 0.931169 0.195352 0.993159
41 1 0.41587 0.828306 0.699362
35 1 0.950118 0.201345 0.924629
66 1 0.00369377 0.570293 0.821148
37 1 0.946623 0.710213 0.0169246
55 1 0.760797 0.669766 0.797222
38 1 0.615248 0.580615 0.818512
27 1 0.954008 0.630186 0.88092
64 1 0.652038 0.137035 0.81033
49 1 0.435166 0.0386281 0.107047
5 1 0.189276 0.296779 0.185161
1 1 0.804995 0.443805 0.112711
92 1 0.721489 0.87407 0.945015
18 1 0.716642 0.835894 0.0474817
94 1 0.714397 0.948182 0.0412045
ITEM: TIMESTEP
200
ITEM: NUMBER OF ATOMS
100
ITEM: BOX BOUNDS pp pp pp
0.0000000000000000e+00 1.0000000000000000e+02
0.0000000000000000e+00 1.0000000000000000e+02
0.0000000000000000e+00 1.0000000000000000e+02
ITEM: ATOMS id type xs ys zs
79 1 0.598412 0.135431 0.114784
87 1 0.639116 0.634149 0.102519
80 1 0.057971 0.801779 0.0371766
54 1 0.480024 0.787751 0.0669853
31 1 0.380388 0.819039 0.956885
96 1 0.394828 0.913232 0.861279
78 1 0.255271 0.00821236 0.0119691
9 1 0.282308 0.739367 0.0115894
26 1 0.0898576 0.672739 0.995536
2 1 0.731458 0.695326 0.816161
86 1 0.619855 0.487733 0.105862
43 1 0.170259 0.82554 0.947157
99 1 0.786985 0.0136008 0.110829
98 1 0.992224 0.747306 0.250461
30 1 0.24381 0.0147529 0.113213
12 1 0.613358 0.28865 0.963692
13 1 0.694786 0.26618 0.0969656
28 1 0.69906 0.500471 0.360711
56 1 0.245803 0.465783 0.0622433
33 1 0.167151 0.685174 0.274978
60 1 0.877278 0.676644 0.283244
65 1 0.870266 0.940282 0.352082
72 1 0.192216 0.704702 0.283429
91 1 0.038731 0.0451714 0.387247
46 1 0.110399 0.0429941 0.203632
14 1 0.228275 0.320465 0.289669
52 1 0.287533 0.413375 0.170478
75 1 0.130009 0.114757 0.155245
58 1 0.640191 0.471172 0.172646
83 1 0.229718 0.712651 0.222803
45 1 0.221624 0.0252301 0.509506
61 1 0.702809 0.268006 0.24979
36 1 0.261879 0.39538 0.110851
16 1 0.48021 0.410705 0.380972
21 1 0.972228 0.460811 0.319687
42 1 0.953322 0.290857 0.482368
67 1 0.522528 0.0202112 0.309429
29 1 0.780974 0.0647663 0.390575
68 1 0.35732 0.974223 0.288211
48 1 0.347009 0.950398 0.545731
3 1 0.0494047 0.90994 0.502575
73 1 0.249036 0.131217 0.41714
7 1 0.4956 0.353391 0.536538
17 1 0.92024 0.162079 0.330726
20 1 0.229082 0.184058 0.533002
51 1 0.860724 0.730436 0.547365
82 1 0.289351 0.998935 0.287388
24 1 0.993428 0.926183 0.378897
90 1 0.455642 0.298129 0.229525
93 1 0.3619 0.462257 0.372504
70 1 0.256788 0.911156 0.364592
57 1 0.650687 0.813229 0.477203
63 1 0.90996 0.231022 0.594132
47 1 0.861541 0.369502 0.685486
59 1 0.8384 0.425783 0.706337
76 1 0.715616 0.233632 0.727943
44 1 0.741523 0.769857 0.591056
4 1 0.250645 0.649061 0.487751
62 1 0.736827 0.090146 0.486475
11 1 0.129631 0.251803 0.808316
77 1 0.979032 0.743273 0.51321
89 1 0.868095 0.518944 0.387122
22 1 0.353987 0.136679 0.508485
10 1 0.626995 0.186574 0.541903
71 1 0.213185 0.30819 0.619966
25 1 0.686467 0.273884 0.771403
34 1 0.863545 0.720542 0.679561
84 1 0.388318 0.485032 0.884601
19 1 0.377423 0.73757 0.500434
8 1 0.486459 0.514902 0.612627
23 1 0.181568 0.300583 0.607944
40 1 0.528576 0.476835 0.507675
6 1 0.17682 0.480141 0.528978
32 1 0.427266 0.712553 0.792182
88 1 0.153399 0.979028 0.591748
15 1 0.466357 0.943094 0.958194
81 1 0.288045 0.421075 0.837725
69 1 0.758333 0.737544 0.752594
95 1 0.879326 0.557107 0.928582
50 1 0.0067365 0.0185379 0.840985
39 1 0.0315377 0.42836 0.668645
97 1 0.352319 0.544436 0.584867
53 1 0.499721 0.749997 0.612217
100 1 0.411118 0.635684 0.804767
85 1 0.872593 0.277211 0.792031
74 1 0.958243 0.147937 0.0378819
41 1 0.402946 0.862593 0.651793
35 1 0.970228 0.195778 0.937901
66 1 0.00381721 0.593058 0.797438
37 1 0.986888 0.735015 0.0566769
55 1 0.729311 0.629822 0.768485
38 1 0.644647 0.566916 0.783049
27 1 0.00781215 0.5965 0.865899
64 1 0.638269 0.163159 0.76016
49 1 0.484159 0.0160366 0.142942
5 1 0.172456 0.334282 0.244524
1 1 0.771696 0.478159 0.153841
92 1 0.730721 0.910027 0.93261
18 1 0.742196 0.819859 0.0685308
94 1 0.700351 0.95216 0.0567589
ITEM: TIMESTEP
250
ITEM: NUMBER OF ATOMS
100
ITEM: BOX BOUNDS pp pp pp
0.0000000000000000e+00 1.0000000000000000e+02
0.0000000000000000e+00 1.0000000000000000e+02
0.0000000000000000e+00 1.0000000000000000e+02
ITEM: ATOMS id type xs ys zs
79 1 0.588382 0.152615 0.141281
87 1 0.680036 0.645265 0.117873
80 1 0.0151334 0.827451 0.0406333
54 1 0.51998 0.800875 0.0770637
31 1 0.405684 0.825892 0.939199
96 1 0.392542 0.917943 0.819355
78 1 0.220377 0.960664 0.00258772
9 1 0.320039 0.789625 0.00059325
26 1 0.0925684 0.666466 0.982714
2 1 0.678787 0.638407 0.759286
86 1 0.644317 0.476018 0.111178
43 1 0.148186 0.849246 0.916976
99 1 0.813755 0.0341976 0.120381
98 1 0.957061 0.707233 0.284261
30 1 0.20185 0.995469 0.110474
12 1 0.650016 0.334994 0.920561
13 1 0.728821 0.306921 0.0842306
28 1 0.705412 0.539828 0.410613
56 1 0.205093 0.425816 0.0388013
33 1 0.124859 0.68186 0.302764
60 1 0.921095 0.624642 0.3078
65 1 0.906782 0.969745 0.389183
72 1 0.216137 0.663247 0.303221
91 1 0.019693 0.0441501 0.424684
46 1 0.098571 0.0266657 0.192514
14 1 0.178964 0.342547 0.302924
52 1 0.231243 0.375394 0.153364
75 1 0.154022 0.154461 0.132994
58 1 0.615812 0.509831 0.153476
83 1 0.186498 0.687695 0.212256
45 1 0.25502 0.00102821 0.56216
61 1 0.735647 0.283522 0.243154
36 1 0.211759 0.417693 0.066369
16 1 0.455199 0.413889 0.403734
21 1 0.016077 0.440949 0.328495
42 1 0.941408 0.327983 0.519736
67 1 0.527162 0.0624448 0.3065
29 1 0.784955 0.0854879 0.405198
68 1 0.37586 0.957881 0.270317
48 1 0.351327 0.966573 0.595175
3 1 0.0799215 0.915375 0.537869
73 1 0.286236 0.103165 0.426673
7 1 0.469275 0.318252 0.574841
17 1 0.926686 0.158925 0.312881
20 1 0.233422 0.154224 0.559348
51 1 0.857138 0.75094 0.577919
82 1 0.249082 0.0407126 0.257147
24 1 0.980596 0.904098 0.364153
90 1 0.423949 0.319383 0.180274
93 1 0.350198 0.498342 0.352287
70 1 0.280369 0.958163 0.338877
57 1 0.679173 0.794861 0.479096
63 1 0.914195 0.243247 0.621046
47 1 0.894705 0.382812 0.724891
59 1 0.817701 0.381622 0.751178
76 1 0.732964 0.152494 0.783192
44 1 0.694494 0.809331 0.60083
4 1 0.285626 0.63795 0.464666
62 1 0.737241 0.0972269 0.457924
11 1 0.17487 0.231665 0.852786
77 1 0.984136 0.777069 0.48621
89 1 0.888891 0.471946 0.329779
22 1 0.351603 0.0978944 0.476134
10 1 0.641528 0.189609 0.511764
71 1 0.22402 0.283087 0.605497
25 1 0.698487 0.229995 0.795154
34 1 0.824389 0.677242 0.683206
84 1 0.430344 0.474539 0.929495
19 1 0.345183 0.743388 0.454232
8 1 0.459351 0.560699 0.585486
23 1 0.19231 0.264756 0.580449
40 1 0.455819 0.514156 0.448998
6 1 0.145308 0.467949 0.485354
32 1 0.421692 0.694367 0.80893
88 1 0.144213 0.954079 0.554217
15 1 0.440145 0.9109 0.0129572
81 1 0.258308 0.415587 0.860733
69 1 0.811311 0.751435 0.755077
95 1 0.841571 0.516986 0.976192
50 1 0.0264516 0.0167665 0.85852
39 1 0.06298 0.477542 0.645342
97 1 0.355467 0.558506 0.541283
53 1 0.483275 0.776415 0.566727
100 1 0.430585 0.610022 0.802053
85 1 0.826031 0.333101 0.7781
74 1 0.985545 0.100123 0.0829808
41 1 0.389914 0.897169 0.603823
35 1 0.990507 0.190164 0.951284
66 1 0.00394169 0.616014 0.773527
37 1 0.0274918 0.760026 0.0967636
55 1 0.69756 0.589542 0.739506
38 1 0.674294 0.553102 0.747288
27 1 0.0620686 0.562531 0.850751
64 1 0.624385 0.189503 0.709568
49 1 0.533564 0.993255 0.179139
5 1 0.155494 0.3721 0.304385
1 1 0.738117 0.512802 0.195317
92 1 0.74003 0.946286 0.9201
18 1 0.767964 0.803689 0.0897569
94 1 0.686187 0.956171 0.0724441
ITEM: TIMESTEP
300
ITEM: NUMBER OF ATOMS
100
ITEM: BOX BOUNDS pp pp pp
0.0000000000000000e+00 1.0000000000000000e+02
0.0000000000000000e+00 1.0000000000000000e+02
0.0000000000000000e+00 1.0000000000000000e+02
ITEM: ATOMS id type xs ys zs
79 1 0.577743 0.170843 0.169389
87 1 0.723442 0.657056 0.134159
80 1 0.969694 0.854682 0.0443
54 1 0.562365 0.814795 0.0877544
31 1 0.432518 0.83316 0.920438
96 1 0.390117 0.92294 0.774884
78 1 0.183363 0.910227 0.992636
9 1 0.360062 0.842936 0.988929
26 1 0.0954439 0.659811 0.969112
2 1 0.622915 0.578031 0.698955
86 1 0.670265 0.463592 0.116817
43 1 0.124772 0.874392 0.884962
99 1 0.842152 0.0560456 0.130514
98 1 0.919761 0.664725 0.320115
30 1 0.15734 0.975015 0.107569
12 1 0.688901 0.384152 0.87481
13 1 0.764924 0.350137 0.0707219
28 1 0.712149 0.581575 0.463546
56 1 0.143661 0.375401 0.927835
33 1 0.0799985 0.678346 0.332238
60 1 0.967574 0.56948 0.333848
65 1 0.945517 0.000997126 0.428539
72 1 0.241511 0.619273 0.324214
91 1 0.999499 0.0430667 0.464395
46 1 0.0860246 0.00934543 0.18072
14 1 0.126658 0.365971 0.316984
52 1 0.171533 0.335105 0.135209
75 1 0.179494 0.196578 0.109391
58 1 0.589951 0.550838 0.133142
83 1 0.140653 0.661222 0.201068
45 1 0.290445 0.975356 0.618013
61 1 0.77048 0.29998 0.236116
36 1 0.176842 0.449381 0.105285
16 1 0.428668 0.417266 0.427879
21 1 0.0625895 0.41988 0.337838
42 1 0.92877 0.367364 0.559373
67 1 0.532077 0.107244 0.303394
29 1 0.789178 0.107468 0.420708
68 1 0.395526 0.940546 0.251335
48 1 0.355907 0.983731 0.647622
3 1 0.112292 0.92114 0.575306
73 1 0.325696 0.0734093 0.436785
7 1 0.44135 0.280979 0.61547
17 1 0.933523 0.15558 0.293952
20 1 0.238026 0.122578 0.587294
51 1 0.853333 0.772688 0.610329
82 1 0.206367 0.0850285 0.225069
24 1 0.966985 0.88067 0.348512
90 1 0.390331 0.341928 0.12803
93 1 0.337786 0.536619 0.330842
70 1 0.305383 0.00802525 0.3116
57 1 0.709389 0.775377 0.481103
63 1 0.918686 0.256215 0.649594
47 1 0.929884 0.39693 0.76669
59 1 0.789671 0.434043 0.747779
76 1 0.751366 0.0664279 0.841797
44 1 0.644609 0.851203 0.611197
4 1 0.322731 0.626163 0.440178
62 1 0.73768 0.104738 0.42764
11 1 0.222857 0.210304 0.899957
77 1 0.989551 0.812919 0.457569
89 1 0.91095 0.422093 0.268953
22 1 0.349074 0.0567538 0.441817
10 1 0.656943 0.192829 0.479795
71 1 0.235514 0.256459 0.590149
25 1 0.711237 0.18344 0.820347
34 1 0.782855 0.631312 0.687073
84 1 0.474923 0.463409 0.977117
19 1 0.310983 0.749559 0.405223
8 1 0.430596 0.609278 0.556696
23 1 0.203705 0.226752 0.551283
40 1 0.378642 0.553744 0.386757
6 1 0.111881 0.455016 0.43908
32 1 0.415778 0.675076 0.826696
88 1 0.134469 0.927614 0.514406
15 1 0.412341 0.87675 0.0710468
81 1 0.226763 0.409765 0.885138
69 1 0.867507 0.76617 0.757711
95 1 0.801522 0.474428 0.0266941
50 1 0.0473643 0.0148875 0.877121
39 1 0.0963324 0.529713 0.620623
97 1 0.358807 0.573431 0.495052
53 1 0.46583 0.804438 0.518475
100 1 0.451234 0.5828 0.799175
85 1 0.782716 0.293123 0.814288
74 1 0.0145048 0.0494046 0.130819
41 1 0.37609 0.933845 0.552939
35 1 0.0120173 0.184209 0.965481
66 1 0.00407374 0.640365 0.748165
37 1 0.070562 0.786556 0.139285
55 1 0.650907 0.594329 0.699721
38 1 0.718716 0.490936 0.7184
27 1 0.119621 0.526499 0.834684
64 1 0.609657 0.217448 0.655902
49 1 0.585971 0.96909 0.217535
5 1 0.137502 0.412216 0.367883
1 1 0.702498 0.549549 0.239312
92 1 0.749904 0.984748 0.906831
18 1 0.795297 0.786537 0.112272
94 1 0.671162 0.960425 0.0890821
ITEM: TIMESTEP
350
ITEM: NUMBER OF ATOMS
100
ITEM: BOX BOUNDS pp pp pp
0.0000000000000000e+00 1.0000000000000000e+02
0.0000000000000000e+00 1.0000000000000000e+02
0.0000000000000000e+00 1.0000000000000000e+02
ITEM: ATOMS id type xs ys zs
79 1 0.567769 0.187933 0.195741
87 1 0.764138 0.668111 0.149429
80 1 0.927091 0.880213 0.0477377
54 1 0.602102 0.827846 0.0977775
31 1 0.457675 0.839974 0.902849
96 1 0.387843 0.927625 0.73319
78 1 0.148661 0.862939 0.983307
9 1 0.397586 0.892918 0.977993
26 1 0.0981398 0.653572 0.95636
2 1 0.570533 0.521425 0.642392
86 1 0.694593 0.451941 0.122104
43 1 0.10282 0.897968 0.854947
99 1 0.868776 0.0765293 0.140014
98 1 0.884791 0.624871 0.35373
30 1 0.11561 0.955837 0.104845
12 1 0.725358 0.430241 0.831915
13 1 0.798772 0.390654 0.0580567
28 1 0.718466 0.620716 0.513174
56 1 0.0828823 0.326736 0.808776
33 1 0.037939 0.67505 0.359871
60 1 0.0111513 0.517762 0.35827
65 1 0.981833 0.0302979 0.465436
72 1 0.2653 0.578044 0.343897
91 1 0.980565 0.0420509 0.501627
46 1 0.0742616 0.993107 0.169663
14 1 0.0776172 0.387932 0.330166
52 1 0.115552 0.297332 0.118188
75 1 0.203375 0.236064 0.0872618
58 1 0.565705 0.589284 0.114078
83 1 0.0976702 0.636402 0.190579
45 1 0.323657 0.951287 0.670378
61 1 0.803138 0.31541 0.229516
36 1 0.147289 0.480488 0.156792
16 1 0.403795 0.420432 0.450516
21 1 0.106198 0.400127 0.346598
42 1 0.916921 0.404286 0.596535
67 1 0.536686 0.149246 0.300481
29 1 0.793137 0.128076 0.43525
68 1 0.413964 0.924294 0.233539
48 1 0.360201 0.999817 0.696794
3 1 0.142641 0.926545 0.610406
73 1 0.315636 0.0973624 0.451841
7 1 0.415169 0.246033 0.653563
17 1 0.939934 0.152444 0.276205
20 1 0.242342 0.0929079 0.613496
51 1 0.849766 0.793079 0.640715
82 1 0.16632 0.126577 0.194994
24 1 0.954223 0.858706 0.333848
90 1 0.358812 0.363065 0.0790486
93 1 0.326148 0.572505 0.310736
70 1 0.328835 0.0547739 0.286026
57 1 0.737719 0.757109 0.482985
63 1 0.922898 0.268374 0.676361
47 1 0.962867 0.410167 0.805878
59 1 0.761431 0.515215 0.72815
76 1 0.780047 -0.000776167 0.857637
44 1 0.597839 0.89046 0.620918
4 1 0.357519 0.615113 0.417219
62 1 0.738092 0.11178 0.399246
11 1 0.267848 0.190277 0.944183
77 1 0.994627 0.84653 0.430717
89 1 0.931632 0.375353 0.211924
22 1 0.393759 0.966331 0.404069
10 1 0.671395 0.195847 0.449821
71 1 0.246289 0.231494 0.57576
25 1 0.723191 0.139792 0.843968
34 1 0.743914 0.58825 0.690697
84 1 0.516718 0.452974 0.0217646
19 1 0.278919 0.755345 0.359274
8 1 0.403636 0.654824 0.529703
23 1 0.214389 0.191121 0.523938
40 1 0.306284 0.590861 0.328402
6 1 0.0805415 0.442891 0.395695
32 1 0.410234 0.65699 0.843352
88 1 0.125334 0.902802 0.477081
15 1 0.386274 0.844732 0.125509
81 1 0.197189 0.404306 0.90802
69 1 0.920193 0.779985 0.76018
95 1 0.763974 0.434527 0.0740425
50 1 0.0669712 0.0131259 0.894559
39 1 0.127602 0.578625 0.597447
97 1 0.361937 0.587424 0.451707
53 1 0.449474 0.830711 0.473235
100 1 0.470594 0.557278 0.796477
85 1 0.744064 0.223617 0.864658
74 1 0.0416566 0.00185314 0.175671
41 1 0.36313 0.968231 0.505232
35 1 0.0321848 0.178626 0.978791
66 1 0.00419753 0.663196 0.724385
37 1 0.110943 0.81143 0.179152
55 1 0.596958 0.636204 0.655302
38 1 0.770573 0.395264 0.698434
27 1 0.17358 0.492716 0.819619
64 1 0.595849 0.243648 0.605588
49 1 0.635105 0.946433 0.253533
5 1 0.120633 0.449827 0.427417
1 1 0.669103 0.584002 0.28056
92 1 0.747735 0.00731988 0.933496
18 1 0.820924 0.770456 0.133382
94 1 0.657075 0.964414 0.104681
ITEM: TIMESTEP
400
ITEM: NUMBER OF ATOMS
100
ITEM: BOX BOUNDS pp pp pp
0.0000000000000000e+00 1.0000000000000000e+02
0.0000000000000000e+00 1.0000000000000000e+02
0.0000000000000000e+00 1.0000000000000000e+02
ITEM: ATOMS id type xs ys zs
79 1 0.558445 0.203909 0.220375
87 1 0.802179 0.678444 0.163702
80 1 0.887267 0.904078 0.0509512
54 1 0.639248 0.840046 0.107147
31 1 0.481192 0.846344 0.886407
96 1 0.385718 0.932004 0.694216
78 1 0.116222 0.818736 0.974585
9 1 0.432662 0.939641 0.967771
26 1 0.10066 0.64774 0.94444
2 1 0.521568 0.468511 0.589519
86 1 0.717335 0.441051 0.127047
43 1 0.0823004 0.920006 0.82689
99 1 0.893664 0.095677 0.148894
98 1 0.852102 0.587617 0.385152
30 1 0.0766014 0.93791 0.102298
12 1 0.759437 0.473324 0.791819
13 1 0.830413 0.428529 0.0462176
28 1 0.724371 0.657303 0.559565
56 1 0.0260677 0.281245 0.697483
33 1 0.998623 0.67197 0.385702
60 1 0.0518858 0.469418 0.381098
65 1 0.0157802 0.0576875 0.499928
72 1 0.287538 0.539505 0.362296
91 1 0.962867 0.0411014 0.53643
46 1 0.0632659 0.977927 0.159327
14 1 0.0317755 0.40846 0.342489
52 1 0.0632224 0.262022 0.102278
75 1 0.225699 0.272975 0.066576
58 1 0.543041 0.625223 0.0962568
83 1 0.0574913 0.613202 0.180774
45 1 0.354704 0.928788 0.719327
61 1 0.833666 0.329834 0.223347
36 1 0.119663 0.509567 0.20494
16 1 0.380544 0.423392 0.471677
21 1 0.146961 0.381662 0.354787
42 1 0.905845 0.4388 0.631273
67 1 0.540993 0.188508 0.297758
29 1 0.796837 0.14734 0.448843
68 1 0.431199 0.909102 0.216903
48 1 0.364215 0.0148544 0.742759
3 1 0.171011 0.931597 0.643216
73 1 0.297321 0.129571 0.46697
7 1 0.390696 0.213366 0.689171
17 1 0.945926 0.149512 0.259615
20 1 0.246377 0.065173 0.637988
51 1 0.846432 0.81214 0.669119
82 1 0.128884 0.165416 0.16688
24 1 0.942294 0.838174 0.320141
90 1 0.329349 0.382824 0.033262
93 1 0.31527 0.606051 0.291942
70 1 0.350758 0.0984734 0.262121
57 1 0.764201 0.740033 0.484744
63 1 0.926834 0.279739 0.701381
47 1 0.993698 0.42254 0.842511
59 1 0.735033 0.591092 0.709801
76 1 0.825331 0.958208 0.809224
44 1 0.554119 0.927157 0.630004
4 1 0.390039 0.604783 0.395758
62 1 0.738477 0.118363 0.372704
11 1 0.309904 0.171556 0.985525
77 1 0.999372 0.877949 0.405617
89 1 0.950965 0.331661 0.158616
22 1 0.444439 0.871988 0.367727
10 1 0.684905 0.198669 0.421803
71 1 0.256362 0.208157 0.562309
25 1 0.734365 0.0989907 0.866048
34 1 0.707513 0.547997 0.694086
84 1 0.555787 0.44322 0.0635003
19 1 0.248947 0.760754 0.316322
8 1 0.378435 0.6974 0.504471
23 1 0.224376 0.157815 0.498377
40 1 0.238645 0.625556 0.273854