LAMMPS (29 Aug 2024 - Update 1)
OMP_NUM_THREADS environment is not set. Defaulting to 1 thread. (src/comm.cpp:98)
  using 1 OpenMP thread(s) per MPI task
units metal
atom_style atomic
boundary p p p

region box block 0 100 0 100 0 100
create_box 1 box
Created orthogonal box = (0 0 0) to (100 100 100)
  1 by 1 by 1 MPI processor grid

create_atoms 1 random 100 12345 box
Created 100 atoms
  using lattice units in orthogonal box = (0 0 0) to (100 100 100)
  create_atoms CPU = 0.000 seconds
mass 1 39.948

pair_style lj/cut 2.5
pair_coeff * * 0.0103 3.4

group Argas region box
100 atoms in group Argas

timestep 0.01
velocity Argas create 2000 12345 mom yes rot yes

thermo 25
thermo_style custom step temp press etotal vol

variable step equal step
variable temp equal temp
variable press equal press
variable etotal equal etotal
variable vol equal vol

fix samp_out all print 10 "${step} ${temp} ${press} ${etotal} ${vol}"                  file thermo_output.txt screen no

fix 1 all nvt temp 2000 100 0.5
dump heat all atom 50 Ar-gas.dump
run 10000
Generated 0 of 0 mixed pair_coeff terms from geometric mixing rule
Neighbor list info ...
  update: every = 1 steps, delay = 0 steps, check = yes
  max neighbors/atom: 2000, page size: 100000
  master list distance cutoff = 4.5
  ghost atom cutoff = 4.5
  binsize = 2.25, bins = 45 45 45
  1 neighbor lists, perpetual/occasional/extra = 1 0 0
  (1) pair lj/cut, perpetual
      attributes: half, newton on
      pair build: half/bin/atomonly/newton
      stencil: half/bin/3d
      bin: standard
Per MPI rank memory allocation (min/avg/max) = 3.534 | 3.534 | 3.534 Mbytes
   Step          Temp          Press          TotEng         Volume    
         0   2000           27.336879      25.593509      1000000      
        25   1999.574       27.331056      25.588057      1000000      
        50   1996.4779      27.288737      25.548437      1000000      
        75   1986.2662      27.14916       25.417761      1000000      
       100   1960.9453      26.803061      25.093735      1000000      
       125   1994.809       27.265926      25.527081      1000000      
       150   1903.4716      26.017486      24.358259      1000000      
       175   1823.415       24.923237      23.333794      1000000      
       200   1796.7507      24.558778      22.992578      1000000      
       225   1848.5626      25.266966      23.655602      1000000      
       250   1988.1373      27.174734      25.441704      1000000      
       275   2401.4113      32.823544      30.73027       1000000      
       300   2337.8946      31.95537       29.917463      1000000      
       325   2131.52        29.134553      27.276538      1000000      
       350   1977.2605      27.026066      25.302517      1000000      
       375   1902.8823      26.009432      24.350718      1000000      
       400   1863.0724      25.465292      23.84128       1000000      
       425   1852.578       25.32185       23.706985      1000000      
       450   1874.8749      25.626614      23.992314      1000000      
       475   1928.2133      26.355667      24.674872      1000000      
       500   1997.5637      27.303578      25.562332      1000000      
       525   2118.7865      28.960505      27.11359       1000000      
       550   2045.1253      27.953672      26.170967      1000000      
       575   1989.5631      27.194223      25.459951      1000000      
       600   1793.9743      24.520829      22.957048      1000000      
       625   1854.1655      25.343549      23.727301      1000000      
       650   1798.7142      24.585617      23.017704      1000000      
       675   1796.8739      24.560462      22.994154      1000000      
       700   1830.9159      25.025763      23.429781      1000000      
       725   2056.9212      28.114903      26.321916      1000000      
       750   2133.198       29.157487      27.29801       1000000      
       775   1964.7252      26.854727      25.142105      1000000      
       800   1707.5926      23.340126      21.851643      1000000      
       825   1640.7162      22.42603       20.995842      1000000      
       850   1674.8343      22.892372      21.432444      1000000      
       875   1781.1782      24.345927      22.7933        1000000      
       900   1911.0747      26.121409      24.455553      1000000      
       925   1990.7857      27.210933      25.475595      1000000      
       950   2159.7376      29.520242      27.637631      1000000      
       975   1982.8274      27.102157      25.373756      1000000      
      1000   1771.3289      24.211302      22.667261      1000000      
      1025   1760.7287      24.066414      22.531613      1000000      
      1050   1749.9139      23.918592      22.393218      1000000      
      1075   1763.8516      24.109099      22.571576      1000000      
      1100   1794.4685      24.527584      22.963373      1000000      
      1125   1831.9812      25.040324      23.443413      1000000      
      1150   1861.3466      25.441704      23.819196      1000000      
      1175   1859.6396      25.418371      23.797351      1000000      
      1200   1796.6621      24.557566      22.991443      1000000      
      1225   1737.4237      23.747871      22.233385      1000000      
      1250   1611.8362      22.031286      20.626272      1000000      
      1275   1552.031       21.213842      19.860959      1000000      
      1300   1581.6752      21.619031      20.240309      1000000      
      1325   1719.3931      23.50142       22.002651      1000000      
      1350   1902.9151      26.00988       24.351137      1000000      
      1375   1970.7581      26.937188      25.219308      1000000      
      1400   2012.5485      27.508397      25.754089      1000000      
      1425   1953.4464      26.700564      24.997774      1000000      
      1450   1822.1449      24.905877      23.317541      1000000      
      1475   1917.7456      26.21259       24.540919      1000000      
      1500   1788.8695      24.451054      22.891723      1000000      
      1525   1809.9058      24.738588      23.16092       1000000      
      1550   1704.432       23.296926      21.811198      1000000      
      1575   1626.03        22.225292      20.807906      1000000      
      1600   1592.6726      21.769348      20.38104       1000000      
      1625   1607.844       21.976718      20.575184      1000000      
      1650   1682.3931      22.995689      21.529172      1000000      
      1675   1847.1381      25.247495      23.637373      1000000      
      1700   2030.6882      27.756339      25.986218      1000000      
      1725   2039.4025      27.875449      26.097733      1000000      
      1750   1813.1498      24.782928      23.202433      1000000      
      1775   1620.4534      22.14907       20.736545      1000000      
      1800   1576.9322      21.554203      20.179614      1000000      
      1825   1584.2956      21.654848      20.273841      1000000      
      1850   1624.2829      22.201413      20.78555       1000000      
      1875   1683.7793      23.014636      21.54691       1000000      
      1900   1737.233       23.745264      22.230944      1000000      
      1925   1752.1877      23.949672      22.422316      1000000      
      1950   1697.1419      23.197281      21.717908      1000000      
      1975   1565.0384      21.391632      20.027412      1000000      
      2000   1578.0095      21.568928      20.1934        1000000      
      2025   1478.6519      20.210865      18.921946      1000000      
      2050   1455.0646      19.888462      18.620104      1000000      
      2075   1501.2481      20.519719      19.211103      1000000      
      2100   1606.4841      21.958131      20.557783      1000000      
      2125   1731.5051      23.666973      22.157645      1000000      
      2150   1802.5583      24.638159      23.066896      1000000      
      2175   1752.8079      23.958149      22.430252      1000000      
      2200   1538.9433      21.034953      19.693479      1000000      
      2225   1383.0097      18.903584      17.698036      1000000      
      2250   1376.1501      18.809825      17.610255      1000000      
      2275   1589.7287      21.729111      20.343368      1000000      
      2300   2493.2568      34.07893       31.905595      1000000      
      2325   2200.5163      30.077624      28.159467      1000000      
      2350   2017.8264      27.580538      25.821629      1000000      
      2375   1929.5493      26.373928      24.691969      1000000      
      2400   1652.1313      22.582056      21.141918      1000000      
      2425   1466.0446      20.038542      18.760613      1000000      
      2450   1366.3331      18.675641      17.484629      1000000      
      2475   1346.8529      18.409378      17.235346      1000000      
      2500   1408.2832      19.249034      18.021455      1000000      
      2525   1527.5695      20.879491      19.547932      1000000      
      2550   1639.9037      22.414924      20.985445      1000000      
      2575   1686.0046      23.045052      21.575387      1000000      
      2600   1654.5259      33.792733      22.777461      1000000      
      2625   1589.9968      21.732775      20.346798      1000000      
      2650   1442.906       19.722273      18.464514      1000000      
      2675   1386.3376      31.295897      19.521081      1000000      
      2700   1452.5481      19.854065      18.587901      1000000      
      2725   1435.0434      19.614803      18.363898      1000000      
      2750   1438.4145      19.660881      18.407037      1000000      
      2775   1608.683       21.988185      20.585921      1000000      
      2800   1761.7004      24.079695      22.544047      1000000      
      2825   1663.2311      22.733774      21.28396       1000000      
      2850   1450.5089      19.826194      18.561807      1000000      
      2875   1389.9657      18.998662      17.78705       1000000      
      2900   1363.9957      18.643692      17.454718      1000000      
      2925   1378.1028      18.836515      17.635243      1000000      
      2950   1429.5482      19.539693      18.293577      1000000      
      2975   1501.4084      20.52191       19.213155      1000000      
      3000   1556.941       21.280954      19.923792      1000000      
      3025   1749.9674      23.919323      22.393903      1000000      
      3050   1511.7828      20.663711      19.345913      1000000      
      3075   1384.5206      18.924236      17.71737       1000000      
      3100   1344.8808      18.382422      17.210109      1000000      
      3125   1386.2346      18.947664      17.739304      1000000      
      3150   1394.2636      19.057407      17.842049      1000000      
      3175   1408.5507      19.252689      18.024877      1000000      
      3200   1422.2862      19.440433      18.200648      1000000      
      3225   1425.3147      19.481827      18.239402      1000000      
      3250   1427.43        19.51074       18.266471      1000000      
      3275   1368.0046      18.698488      17.506019      1000000      
      3300   1284.8719      17.562194      16.44219       1000000      
      3325   1224.1558      16.732299      15.665221      1000000      
      3350   1391.3332      19.017354      17.80455       1000000      
      3375   1298.3784      17.746807      16.61503       1000000      
      3400   1214.1717      16.595833      15.537458      1000000      
      3425   1263.7778      17.273871      16.172255      1000000      
      3450   1265.9541      17.303617      16.200104      1000000      
      3475   1337.5393      18.282074      17.116161      1000000      
      3500   1896.1314      25.917157      24.264327      1000000      
      3525   1772.3604      24.225401      22.680461      1000000      
      3550   1512.3841      20.67193       19.353608      1000000      
      3575   1374.8876      18.792568      17.594099      1000000      
      3600   1277.8685      17.466469      16.35257       1000000      
      3625   1216.7389      16.630921      15.570308      1000000      
      3650   1200.0061      16.40221       15.356183      1000000      
      3675   1232.5664      16.847259      15.772849      1000000      
      3700   1307.3267      17.869116      16.729539      1000000      
      3725   1387.49        18.964823      17.755369      1000000      
      3750   1424.2566      19.467365      18.225861      1000000      
      3775   1387.4732      18.964593      17.755154      1000000      
      3800   1275.9876      17.440759      16.328499      1000000      
      3825   1162.6414      15.891493      14.878036      1000000      
      3850   1121.6566      15.331295      14.353564      1000000      
      3875   1146.4556      15.670259      14.670911      1000000      
      3900   1205.727       16.480407      15.429393      1000000      
      3925   1255.4243      17.159691      16.065356      1000000      
      3950   1366.2705      18.674785      17.483828      1000000      
      3975   1398.208       19.111321      17.892524      1000000      
      4000   1296.2192      17.717294      16.587399      1000000      
      4025   1217.072       16.635475      15.574571      1000000      
      4050   1175.3832      16.065654      15.04109       1000000      
      4075   1344.8426      18.381899      17.20962       1000000      
      4100   1356.223       18.537451      17.355252      1000000      
      4125   1285.0271      17.564315      16.444176      1000000      
      4150   1185.4668      16.203481      15.170127      1000000      
      4175   1157.9452      15.827304      14.817941      1000000      
      4200   1161.5061      15.875975      14.863508      1000000      
      4225   1182.987       16.169587      15.138395      1000000      
      4250   1214.4369      16.599457      15.54085       1000000      
      4275   1244.4499      17.009689      15.92492       1000000      
      4300   1331.7556      18.20302       17.042149      1000000      
      4325   1255.6752      17.16312       16.068567      1000000      
      4350   1107.392       15.136321      14.171024      1000000      
      4375   1031.8933      14.104371      13.204885      1000000      
      4400   1034.2038      14.135951      13.234451      1000000      
      4425   1089.1091      14.886421      13.937061      1000000      
      4450   1168.4602      15.971027      14.952498      1000000      
      4475   1224.5508      16.737699      15.670276      1000000      
      4500   1335.3055      18.251543      17.087577      1000000      
      4525   1305.9948      44.659679      20.682887      1000000      
      4550   1566.208       21.407619      20.042379      1000000      
      4575   1381.3118      18.880377      17.676308      1000000      
      4600   1210.3845      16.544067      15.488993      1000000      
      4625   1140.7024      15.591622      14.597289      1000000      
      4650   1113.5355      15.220292      14.24964       1000000      
      4675   1038.6226      14.19635       13.290998      1000000      
      4700   1003.4342      13.71538       12.840701      1000000      
      4725   1014.0179      13.860043      12.976138      1000000      
      4750   1068.9285      14.610584      13.678815      1000000      
      4775   1143.8202      15.634238      14.637187      1000000      
      4800   1195.2079      16.336627      15.294782      1000000      
      4825   1191.6401      16.287861      15.249126      1000000      
      4850   1124.8553      15.375017      14.394497      1000000      
      4875   1030.7372      14.088569      13.190091      1000000      
      4900   971.51908      13.27915       12.432291      1000000      
      4925   964.00611      13.176459      12.336149      1000000      
      4950   1064.417       14.54892       13.621083      1000000      
      4975   1104.0955      15.091262      14.128838      1000000      
      5000   1141.3014      15.599809      14.604954      1000000      
      5025   1172.2427      16.022729      15.000902      1000000      
      5050   1149.9918      15.718593      14.716163      1000000      
      5075   1057.5462      14.455006      13.533159      1000000      
      5100   967.56019      13.225038      12.38163       1000000      
      5125   1097.7067      15.003938      14.047083      1000000      
      5150   1100.9218      15.047882      14.088225      1000000      
      5175   1140.5109      15.589004      14.594838      1000000      
      5200   1053.908       14.405278      13.486602      1000000      
      5225   990.56828      13.539522      12.676059      1000000      
      5250   956.77578      13.077632      12.243625      1000000      
      5275   948.76269      12.968105      12.141083      1000000      
      5300   1056.7683      14.444374      13.523205      1000000      
      5325   1023.1453      13.9848        13.092939      1000000      
      5350   940.57999      12.856261      12.036371      1000000      
      5375   849.61791      11.612951      10.872352      1000000      
      5400   816.47464      11.159934      10.448225      1000000      
      5425   960.34302      13.12639       12.289274      1000000      
      5450   1017.7439      13.91097       13.023818      1000000      
      5475   1083.374       14.808032      13.863671      1000000      
      5500   1149.0703      15.705998      14.70437       1000000      
      5525   1150.5162      15.725761      14.722873      1000000      
      5550   1023.974       13.996126      13.103543      1000000      
      5575   910.2042       27.678717      13.863581      1000000      
      5600   963.36206      13.167656      12.327908      1000000      
      5625   901.65342      12.324195      11.538237      1000000      
      5650   866.05298      11.837593      11.082667      1000000      
      5675   859.20856      11.74404       10.995081      1000000      
      5700   883.08066      12.070335      11.300566      1000000      
      5725   1160.2577      15.858912      14.847533      1000000      
      5750   1001.5013      13.68896       12.815966      1000000      
      5775   907.81518      12.408417      11.617088      1000000      
      5800   870.08861      11.892753      11.13431       1000000      
      5825   853.27463      11.662933      10.919146      1000000      
      5850   855.01348      11.6867        10.941397      1000000      
      5875   874.84682      11.957791      11.1952        1000000      
      5900   906.80433      12.3946        11.604152      1000000      
      5925   1032.3624      14.110783      13.210888      1000000      
      5950   976.18273      13.342895      12.491971      1000000      
      5975   859.34151      11.745857      10.996782      1000000      
      6000   799.44014      10.927099      10.230239      1000000      
      6025   791.05525      10.812491      10.12294       1000000      
      6050   811.13736      11.086982      10.379926      1000000      
      6075   849.2128       11.607414      10.867168      1000000      
      6100   889.47325      12.157711      11.382371      1000000      
      6125   911.55688      12.45956       11.664969      1000000      
      6150   894.01831      12.219835      11.440533      1000000      
      6175   805.75735      11.013446      10.311079      1000000      
      6200   713.97058      9.7588636      9.1365061      1000000      
      6225   694.81274      9.4970059      8.891348       1000000      
      6250   726.04024      9.9238371      9.2909586      1000000      
      6275   896.22652      12.250018      11.468791      1000000      
      6300   916.92406      12.532921      11.733652      1000000      
      6325   879.52211      12.021695      11.255028      1000000      
      6350   822.24044      11.238744      10.522009      1000000      
      6375   782.87184      10.700636      10.018219      1000000      
      6400   765.99447      10.469949      9.8022431      1000000      
      6425   762.76541      10.425813      9.7609216      1000000      
      6450   767.33502      10.488272      9.8193977      1000000      
      6475   775.51637      10.600098      9.9240924      1000000      
      6500   783.52439      10.709556      10.026569      1000000      
      6525   786.832        10.754765      10.068896      1000000      
      6550   773.98465      10.579162      9.9044915      1000000      
      6575   738.70015      10.096878      9.4529643      1000000      
      6600   699.54658      9.56171        8.9519257      1000000      
      6625   677.62569      9.2620856      8.6714095      1000000      
      6650   682.67698      9.331129       8.7360497      1000000      
      6675   718.97747      9.8272999      9.200578       1000000      
      6700   775.82759      10.604352      9.9280751      1000000      
      6725   815.89844      11.152058      10.440852      1000000      
      6750   807.27697      11.034216      10.330525      1000000      
      6775   832.89331      11.384352      10.658331      1000000      
      6800   720.45718      9.8475253      9.2195136      1000000      
      6825   683.41064      9.3411569      8.745438       1000000      
      6850   673.75717      9.2092091      8.6219051      1000000      
      6875   676.5983       9.2480428      8.6582622      1000000      
      6900   688.71375      9.4136421      8.8133007      1000000      
      6925   704.5688       9.630356       9.0161939      1000000      
      6950   714.85978      9.7710176      9.147885       1000000      
      6975   708.22307      9.6803041      9.0629566      1000000      
      7000   675.54878      9.2336976      8.6448318      1000000      
      7025   624.87166      8.5410204      7.9963292      1000000      
      7050   600.5082       20.070343      9.3922055      1000000      
      7075   750.28942      10.255285      9.6012694      1000000      
      7100   667.28407      9.1207319      8.5390704      1000000      
      7125   627.36638      8.5751193      8.0282534      1000000      
      7150   617.36863      8.4384658      7.9003148      1000000      
      7175   620.40667      8.479991       7.9391918      1000000      
      7200   631.47938      8.6313376      8.0808865      1000000      
      7225   645.76842      8.8266465      8.2637398      1000000      
      7250   725.48176      9.9162035      9.2838119      1000000      
      7275   653.66709      8.934609       8.3648172      1000000      
      7300   577.98868      7.9002032      7.3963791      1000000      
      7325   556.49039      7.6063552      7.1212709      1000000      
      7350   664.21561      9.0787909      8.499804       1000000      
      7375   641.01544      8.7616807      8.2029171      1000000      
      7400   597.6854       8.1694267      7.6484333      1000000      
      7425   558.81083      7.6380719      7.1509649      1000000      
      7450   540.74164      7.3910943      6.9197379      1000000      
      7475   543.85101      7.4335945      6.9595277      1000000      
      7500   634.85839      8.6775234      8.1241268      1000000      
      7525   591.06929      8.0789947      7.5637685      1000000      
      7550   711.92643      9.7309232      9.1103476      1000000      
      7575   630.52174      8.6182482      8.0686318      1000000      
      7600   584.1501       7.9844203      7.4752254      1000000      
      7625   544.61411      7.444025       6.969293       1000000      
      7650   515.6487       7.048113       6.5986297      1000000      
      7675   502.26637      6.8651975      6.4273794      1000000      
      7700   506.47848      6.9227705      6.4812807      1000000      
      7725   527.80997      7.2143386      6.7542546      1000000      
      7750   649.13377      8.8726456      8.3068054      1000000      
      7775   610.55162      8.3452878      7.8130791      1000000      
      7800   534.76943      7.3094636      6.8433131      1000000      
      7825   498.36498      6.8118715      6.3774542      1000000      
      7850   486.66194      6.6519093      6.2276933      1000000      
      7875   486.8616       6.6546383      6.2302484      1000000      
      7900   495.58386      6.773858       6.341865       1000000      
      7925   509.08694      6.9584239      6.5146605      1000000      
      7950   630.29399      8.6151352      8.0657174      1000000      
      7975   629.20996      8.6003183      8.0518454      1000000      
      8000   533.07533      7.2863078      6.8216341      1000000      
      8025   489.85868      6.6956036      6.2686012      1000000      
      8050   457.20812      6.2493215      5.85078        1000000      
      8075   435.41241      5.9514082      5.5718657      1000000      
      8100   681.31169      9.3124675      8.7185783      1000000      
      8125   567.96935      7.7632546      7.2681642      1000000      
      8150   585.39369      17.960221      8.9133201      1000000      
      8175   551.27475      7.5350656      7.0545276      1000000      
      8200   587.62541      8.0319223      7.519698       1000000      
      8225   497.06559      6.7941109      6.3608263      1000000      
      8250   429.54849      5.8712575      5.4968265      1000000      
      8275   389.4895       5.3237136      4.9842014      1000000      
      8300   372.48321      5.0912642      4.7665762      1000000      
      8325   377.45046      5.1591588      4.8301408      1000000      
      8350   401.56527      5.4887705      5.1387321      1000000      
      8375   432.21604      5.9077187      5.5309625      1000000      
      8400   451.09402      6.1657512      5.7725393      1000000      
      8425   445.14298      6.0844098      5.6963853      1000000      
      8450   414.48924      5.6654211      5.304117       1000000      
      8475   379.12329      5.1820237      4.8515476      1000000      
      8500   356.54725      4.8734445      4.5626476      1000000      
      8525   442.26016      6.0450063      5.6594947      1000000      
      8550   422.38008      5.7732766      5.4050942      1000000      
      8575   379.9724       5.1936297      4.8624135      1000000      
      8600   350.76236      4.794374       4.4886197      1000000      
      8625   340.47002      4.6536938      4.3569112      1000000      
      8650   341.50436      4.6678316      4.3701474      1000000      
      8675   349.53633      4.7776162      4.4729306      1000000      
      8700   360.68183      4.9299578      4.6155568      1000000      
      8725   369.96322      5.0568199      4.7343285      1000000      
      8750   368.5229       5.037133       4.7158971      1000000      
      8775   341.87442      4.6728898      4.374883       1000000      
      8800   305.87494      4.180833       3.9142064      1000000      
      8825   288.6554       3.9454688      3.6938522      1000000      
      8850   289.03296      3.9506295      3.6986838      1000000      
      8875   303.15482      4.1436532      3.8793977      1000000      
      8900   324.8812       4.440619       4.1574249      1000000      
      8925   340.31475      4.6515715      4.3549242      1000000      
      8950   412.04104      5.631958       5.2727879      1000000      
      8975   354.04629      4.8392603      4.5306435      1000000      
      9000   321.64511      4.3963867      4.1160135      1000000      
      9025   384.48692      5.2553362      4.9201847      1000000      
      9050   330.89566      4.5228272      4.2343904      1000000      
      9075   287.3048       3.9270082      3.6765689      1000000      
      9100   259.97477      3.5534494      3.3268333      1000000      
      9125   244.48918      3.3417856      3.128668       1000000      
      9150   239.63234      3.2754001      3.0665161      1000000      
      9175   244.609        3.3434232      3.1302012      1000000      
      9200   256.35656      3.5039941      3.2805319      1000000      
      9225   267.36869      3.6545128      3.4214515      1000000      
      9250   268.75354      3.6734415      3.4391731      1000000      
      9275   255.33779      3.4900691      3.267495       1000000      
      9300   232.90443      3.1834401      2.9804208      1000000      
      9325   216.1623       2.9546013      2.7661759      1000000      
      9350   209.31288      2.8609804      2.6785255      1000000      
      9375   316.19539      4.3218975      4.0462747      1000000      
      9400   269.01399      3.6770014      3.442506       1000000      
      9425   240.416        3.2861115      3.0765444      1000000      
      9450   214.33215      2.9295861      2.7427559      1000000      
      9475   194.1726       2.6540363      2.484779       1000000      
      9500   181.76362      2.484425       2.3259844      1000000      
      9525   176.41628      2.4113352      2.2575558      1000000      
      9550   177.21472      2.4222487      2.2677733      1000000      
      9575   182.33574      2.492245       2.3333057      1000000      
      9600   187.71403      2.5657579      2.4021304      1000000      
      9625   187.69995      2.5655654      2.4019502      1000000      
      9650   177.99078      2.4328562      2.2777043      1000000      
      9675   161.7265       2.2105488      2.0695742      1000000      
      9700   149.6702       2.045758       1.9152927      1000000      
      9725   239.51908      3.273852       3.0650668      1000000      
      9750   202.36251      2.7659796      2.5895833      1000000      
      9775   175.31871      2.3963332      2.2435105      1000000      
      9800   151.27796      2.0677337      1.935867       1000000      
      9825   133.53364      1.8251965      1.7087972      1000000      
      9850   121.93392      1.6666465      1.5603585      1000000      
      9875   115.31717      1.5762057      1.4756855      1000000      
      9900   112.70225      1.5404638      1.442223       1000000      
      9925   112.8602       1.5426228      1.4442442      1000000      
      9950   113.71479      1.5543037      1.4551802      1000000      
      9975   112.41037      1.5364743      1.4384879      1000000      
     10000   169.69913      2.3195222      2.171598       1000000      
Loop time of 0.220227 on 1 procs for 10000 steps with 100 atoms

Performance: 39232.247 ns/day, 0.001 hours/ns, 45407.693 timesteps/s, 4.541 Matom-step/s
87.3% CPU use with 1 MPI tasks x 1 OpenMP threads

MPI task timing breakdown:
Section |  min time  |  avg time  |  max time  |%varavg| %total
---------------------------------------------------------------
Pair    | 0.004428   | 0.004428   | 0.004428   |   0.0 |  2.01
Neigh   | 0.13389    | 0.13389    | 0.13389    |   0.0 | 60.80
Comm    | 0.008115   | 0.008115   | 0.008115   |   0.0 |  3.68
Output  | 0.022474   | 0.022474   | 0.022474   |   0.0 | 10.20
Modify  | 0.045223   | 0.045223   | 0.045223   |   0.0 | 20.53
Other   |            | 0.006095   |            |       |  2.77

Nlocal:            100 ave         100 max         100 min
Histogram: 1 0 0 0 0 0 0 0 0 0
Nghost:             26 ave          26 max          26 min
Histogram: 1 0 0 0 0 0 0 0 0 0
Neighs:              1 ave           1 max           1 min
Histogram: 1 0 0 0 0 0 0 0 0 0

Total # of neighbors = 1
Ave neighs/atom = 0.01
Neighbor list builds = 2532
Dangerous builds = 0

Total wall time: 0:00:00
