LAMMPS (23 Jun 2022)
#
# Shear stress applied measure the shear strain and determine the shear modulus (C44=C55=C66)
#
units metal
dimension 3
boundary p p p

#
# read restart file from previous run
#

read_restart	restart_at300K.npt2 remap
Reading restart file ...
  restart file = 23 Jun 2022, LAMMPS = 23 Jun 2022
  restoring atom style atomic from restart
  triclinic box = (0.10231192 0.10231192 0.10231192) to (43.493688 43.493688 43.493688) with tilt (0 0 0)
  2 by 2 by 2 MPI processor grid
  pair style tersoff stores no restart info
  8000 atoms
  read_restart CPU = 0.154 seconds

# CHANGE BOX to triclinic

change_box      all triclinic
Changing box ...
  triclinic box = (0.10231192 0.10231192 0.10231192) to (43.493688 43.493688 43.493688) with tilt (0 0 0)

#
# Potentials
#

pair_style	tersoff
pair_coeff      * * ./SiC.tersoff C Si
Reading tersoff potential file ./SiC.tersoff with DATE: 2011-04-26

mass 1   12.0107
mass 2   28.0855

#
# T0 is temperature at which we got the restart file from
# P0 is pressure which we got from the restart file
#
variable T0		equal 300
variable T1		equal 300
variable T2		equal 300
variable P0		equal 1
variable P1		equal 1
variable P2		equal 1000

variable step_ramp	equal 500
variable step_relax	equal 2000
variable step_equi      equal 5000
variable step_cont	equal 2000
variable step_begp	equal 1000
variable thermo_step	equal 100

variable vstep  equal           "step"
variable vpe    equal           "pe"
variable vtemp  equal           "temp"
variable venth  equal        "enthalpy"
variable vvol   equal           "vol"
variable vlx	equal		"lx"
variable vly	equal		"ly"
variable vlz	equal		"lz"
variable vxy	equal		"xy"
variable vxz	equal		"xz"
variable vyz	equal		"yz"
variable vpress equal           "press"
variable vte	equal		"etotal"
variable vke    equal		"ke"

variable vpxx	equal		"pxx"
variable vpyy   equal           "pyy"
variable vpzz   equal           "pzz"
variable vpxy   equal           "pxy"
variable vpxz   equal           "pxz"
variable vpyz   equal           "pyz"

# Initialization with RESTART file
# Switched the system into triclinic - observe the change in fix all npt - lines

timestep 	0.001 # fs

thermo          100
thermo_style    custom step temp ke pe etotal enthalpy vol lx ly lz press pxx pyy pzz pxy pxz pyz atoms
fix cont        all npt temp ${T0} ${T0} 0.1 x 0 0 0.1 y 0 0 0.1 z 0 0 0.1 xy ${P0} ${P0} 1.0
fix cont        all npt temp 300 ${T0} 0.1 x 0 0 0.1 y 0 0 0.1 z 0 0 0.1 xy ${P0} ${P0} 1.0
fix cont        all npt temp 300 300 0.1 x 0 0 0.1 y 0 0 0.1 z 0 0 0.1 xy ${P0} ${P0} 1.0
fix cont        all npt temp 300 300 0.1 x 0 0 0.1 y 0 0 0.1 z 0 0 0.1 xy 1 ${P0} 1.0
fix cont        all npt temp 300 300 0.1 x 0 0 0.1 y 0 0 0.1 z 0 0 0.1 xy 1 1 1.0
fix cnt_out     all print 10 "${vstep} ${vtemp} ${vke} ${vpe} ${vte} ${venth} ${vvol} ${vlx} ${vly} ${vlz} ${vpress} ${vpxx} ${vpyy} ${vpzz} ${vpxy}"                 file npt${T0}Kxy${P0}bar.cnt  screen no
fix cnt_out     all print 10 "${vstep} ${vtemp} ${vke} ${vpe} ${vte} ${venth} ${vvol} ${vlx} ${vly} ${vlz} ${vpress} ${vpxx} ${vpyy} ${vpzz} ${vpxy}"                 file npt300Kxy${P0}bar.cnt  screen no
fix cnt_out     all print 10 "${vstep} ${vtemp} ${vke} ${vpe} ${vte} ${venth} ${vvol} ${vlx} ${vly} ${vlz} ${vpress} ${vpxx} ${vpyy} ${vpzz} ${vpxy}"                 file npt300Kxy1bar.cnt  screen no
run             ${step_cont}
run             2000
Unused restart file global fix info:
  fix style: npt, fix ID: npt2
Neighbor list info ...
  update every 1 steps, delay 10 steps, check yes
  max neighbors/atom: 2000, page size: 100000
  master list distance cutoff = 5
  ghost atom cutoff = 5
  binsize = 2.5, bins = 18 18 18
  1 neighbor lists, perpetual/occasional/extra = 1 0 0
  (1) pair tersoff, perpetual
      attributes: full, newton on
      pair build: full/bin/atomonly
      stencil: full/bin/3d
      bin: standard
Per MPI rank memory allocation (min/avg/max) = 3.139 | 3.15 | 3.159 Mbytes
   Step          Temp          KinEng         PotEng         TotEng        Enthalpy        Volume           Lx             Ly             Lz           Press           Pxx            Pyy            Pzz            Pxy            Pxz            Pyz          Atoms   
     12000   285.2377       294.92206     -49034.13      -48739.208     -48643.775      81697.783      43.391376      43.391376      43.391376      1871.5383      870.17021      1856.3251      2888.1197     -110.86215     -1063.617       143.42462           8000 
     12100   289.71787      299.55434     -49029.991     -48730.436     -48724.555      81746.054      43.381974      43.415876      43.401918      115.26575      1742.7481     -1214.9341     -182.0168       228.64075      385.2136      -2428.0527           8000 
     12200   293.96168      303.94224     -49024.167     -48720.225     -48615.953      81746.557      43.384497      43.412053      43.403483      2043.6698      4130.2735      1649.6635      351.0723       2003.303       1112.5151     -692.91741           8000 
     12300   300.83292      311.04677     -49022.046     -48711         -48607.481      81752.24       43.40448       43.407496      43.391072      2028.7511      2135.404       1138.7849      2812.0646     -2725.197      -102.91931     -778.08187           8000 
     12400   303.59413      313.90173     -49018.973     -48705.072     -48671.943      81814.72       43.41543       43.403718      43.41706            13500   297.40372      307.50114     -49017.231     -48709.73      -48567.269      81765.359      43.393476      43.412126      43.40441       2791.4888      2917.8547      2476.8583      2979.7535      1528.4436      342.53222     -494.67096           8000 
     13600   299.35657      309.5203      -49019.023     -48709.502     -48717.284      81806.713      43.399464      43.414773      43.417723     -152.396        977.03919     -1091.8884     -342.33875     -1315.8468      1408.8065     -1144.8586           8000 
     13700   297.79575      307.90648     -49015.401     -48707.494     -48802.406      81842.787      43.413614      43.42298       43.414504     -1858.0124     -2262.7625     -1976.3119     -1334.9627      1442.2672      1134.5838      444.32909           8000 
     13800   304.53136      314.87078     -49020.035     -48705.164     -48537.895      81735.551      43.398965      43.38381       43.411414      3278.8089      3766.5976      4767.0335      1302.7956     -1613.9626      416.06375      388.02928           8000 
     13900   300.12203      310.31174     -49016.806     -48706.494     -48655.958      81816.904      43.409992      43.412569      43.414804      989.62569      1005.464       697.66181      1265.7513     -2092.0793     -1957.2229      2084.5081           8000 
     14000   297.88919      308.00309     -49020.314     -48712.311     -48685.205      81781.791      43.405212      43.399038      43.414484      531.04659      1077.7703      555.19709     -39.827654      88.436234     -170.45156      1346.8934           8000 
Loop time of 7.76118 on 8 procs for 2000 steps with 8000 atoms

Performance: 22.265 ns/day, 1.078 hours/ns, 257.693 timesteps/s
99.7% CPU use with 8 MPI tasks x no OpenMP threads

MPI task timing breakdown:
Section |  min time  |  avg time  |  max time  |%varavg| %total
---------------------------------------------------------------
Pair    | 7.2264     | 7.3561     | 7.4954     |   3.4 | 94.78
Neigh   | 0          | 0          | 0          |   0.0 |  0.00
Comm    | 0.13286    | 0.2719     | 0.40177    |  17.9 |  3.50
Output  | 0.00067431 | 0.00070273 | 0.00088104 |   0.0 |  0.01
Modify  | 0.11834    | 0.11924    | 0.12001    |   0.2 |  1.54
Other   |            | 0.01321    |            |       |  0.17

Nlocal:           1000 ave        1017 max         981 min
Histogram: 1 1 0 1 1 0 2 0 0 2
Nghost:           2060 ave        2079 max        2043 min
Histogram: 2 0 0 2 0 1 1 0 1 1
Neighs:              0 ave           0 max           0 min
Histogram: 8 0 0 0 0 0 0 0 0 0
FullNghs:        46000 ave       46782 max       45126 min
Histogram: 1 1 0 1 1 0 2 0 0 2

Total # of neighbors = 368000
Ave neighs/atom = 46
Neighbor list builds = 0
Dangerous builds = 0
System init for write_restart ...
Setting up Verlet run ...
  Unit style    : metal
  Current step  : 0
  Time step     : 0.001
Per MPI rank memory allocation (min/avg/max) = 3.139 | 3.15 | 3.159 Mbytes
   Step          Temp          KinEng         PotEng         TotEng        Enthalpy        Volume           Lx             Ly             Lz           Press           Pxx            Pyy            Pzz            Pxy            Pxz            Pyz          Atoms   
         0   297.88919      308.00309     -49020.314     -48712.311     -48685.205      81781.791      43.405212      43.399038      43.414484      531.04659      1077.7703      555.19709     -39.827654      88.436234     -170.45156      1346.8934           8000 
       100   298.95619      309.10632     -49019.324     -48710.218     -48744.407      81800.756      43.42138       43.4147        43.392722     -669.63602     -3253.7518     -734.59114      1979.4348     -1460.8554     -555.11576      967.08337           8000 
       200   305.85438      316.23872     -49020.223     -48703.985     -48832.014      81841.929      43.402267      43.418409      43.429971     -2506.3624     -649.08788     -2625.1688     -4244.8306      2871.8648     -784.40321     -582.74258           8000 
       300   305.23652      315.59988     -49017.006     -48701.406     -48786.962      81869.036      43.434574      43.421349      43.409101     -1674.3447     -3022.6173     -2207.0638      206.647        363.42748     -1565.4383     -822.78542           8000 
       400   300.57563      310.78075     -49018.175     -48707.394     -48824.852      81856.865      43.403165      43.421235      43.434171     -2299.0019     -451.53464     -2209.598      -4235.8729     -2258.0373      1154.029      -2166.474            8000 
       500   300.88724      311.10293     -49022.281     -48711.178     -48683.4        81797.535      43.427546      43.408751      43.390798      544.09169     -1730.1533      1107.1646      2255.2638      2930.612      -1100.5618      193.62046           8000 
       600   300.25687      310.45116     -49020.802     -48710.351     -48657.779      81767.725      43.378196      43.411607      43.421474      1030.1075      2899.3022      209.38581     -18.365613     -2729.6826      931.14663     -3080.7793           8000 
       700   298.86525      309.01229     -49017.555     -48708.542     -48660.349      81816.141      43.431748      43.403754      43.401466      943.75903     -1123.1684      1175.7625      2778.683       3960.9365     -1173.8346     -633.25578           8000 
       800   296.68655      306.75962     -49013.384     -48706.624     -48712.659      81907.021      43.400724      43.439476      43.444978     -118.05019      1660.8356     
write_restart   restart_${T0}Kxy${P0}bar.cnt
write_restart   restart_300Kxy${P0}bar.cnt
write_restart   restart_300Kxy1bar.cnt
System init for write_restart ...

unfix           cont
unfix           cnt_out

#
# Set a run for 0 pressure state for the
reset_timestep  0

fix equa       all npt temp ${T0} ${T0} 0.1 x 0 0 1. y 0 0 1. z 0 0 1. xy 0 0 1. xz 0 0 1. yz 0 0 1.0
fix equa       all npt temp 300 ${T0} 0.1 x 0 0 1. y 0 0 1. z 0 0 1. xy 0 0 1. xz 0 0 1. yz 0 0 1.0
fix equa       all npt temp 300 300 0.1 x 0 0 1. y 0 0 1. z 0 0 1. xy 0 0 1. xz 0 0 1. yz 0 0 1.0
fix equa_out   all print 10 "${vstep} ${vtemp} ${vke} ${vpe} ${vte} ${venth} ${vvol} ${vlx} ${vly} ${vlz} ${vxy} ${vxz} ${vyz} ${vpress} ${vpxx} ${vpyy} ${vpzz} ${vpxy}"                 file npt${T0}Kxy${P0}bar.equ  screen no
fix equa_out   all print 10 "${vstep} ${vtemp} ${vke} ${vpe} ${vte} ${venth} ${vvol} ${vlx} ${vly} ${vlz} ${vxy} ${vxz} ${vyz} ${vpress} ${vpxx} ${vpyy} ${vpzz} ${vpxy}"                 file npt300Kxy${P0}bar.equ  screen no
fix equa_out   all print 10 "${vstep} ${vtemp} ${vke} ${vpe} ${vte} ${venth} ${vvol} ${vlx} ${vly} ${vlz} ${vxy} ${vxz} ${vyz} ${vpress} ${vpxx} ${vpyy} ${vpzz} ${vpxy}"                 file npt300Kxy1bar.equ  screen no
run             ${step_equi}
run             5000
Per MPI rank memory allocation (min/avg/max) = 3.139 | 3.15 | 3.159 Mbytes
   Step          Temp          KinEng         PotEng         TotEng        Enthalpy        Volume           Lx             Ly             Lz           Press           Pxx            Pyy            Pzz            Pxy            Pxz            Pyz          Atoms   
         0   297.88919      308.00309     -49020.314     -48712.311     -48685.205      81781.791      43.405212      43.399038      43.414484      531.04659      1077.7703      555.19709     -39.827654      88.436234     -170.45156      1346.8934           8000 
       100   298.95619      309.10632     -49019.324     -48710.218     -48744.407      81800.756      43.42138       43.4147        43.392722     -669.63602     -3253.7518     -734.59114      1979.4348     -1460.8554     -555.11576      967.08337           8000 
       200   305.85438      316.23872     -49020.223     -48703.985     -48832.014      81841.929      43.402267      43.418409      43.429971     -2506.3624     -649.08788     -2625.1688     -4244.8306      2871.8648     -784.40321     -582.74258           8000 
       300   305.23652      315.59988     -49017.006     -48701.406     -48786.962      81869.036      43.434574      43.421349      43.409101     -1674.3447     -3022.6173     -2207.0638      206.647        363.42748     -1565.4383     -822.78542           8000 
       400   300.57563      310.78075     -49018.175     -48707.394     -48824.852      81856.865      43.403165      43.421235      43.434171     -2299.0019     -451.53464     -2209.598      -4235.8729     -2258.0373      1154.029      -2166.474            8000 
       500   300.88724      311.10293     -49022.281     -48711.178     -48683.4        81797.535      43.427546      43.408751      43.390798      544.09169     -1730.1533      1107.1646      2255.2638      2930.612      -1100.5618      193.62046           8000 
       600   300.25687      310.45116     -49020.802     -48710.351     -48657.779      81767.725      43.378196      43.411607      43.421474      1030.1075      2899.3022      209.38581     -18.365613     -2729.6826      931.14663     -3080.7793           8000 
       700   298.86525      309.01229     -49017.555     -48708.542     -48660.349      81816.141      43.431748      43.403754      43.401466      943.75903     -1123.1684      1175.7625      2778.683       3960.9365     -1173.8346     -633.25578           8000 
       800   296.68655      306.75962     -49013.384     -48706.624     -48712.659      81907.021      43.400724      43.439476      43.444978     -118.05019      1660.8356     -862.43987     -1152.5463     -3004.7738      1566.4129     -749.40684           8000 
       900   299.8765       310.05787          2400   299.45766      309.62481     -49018.78      -48709.155     -48732.815      81826.957      43.417227      43.430575      43.394904     -463.25637     -302.43241     -2499.5746      1412.2379     -2414.0283      1002.7493      1468.1114           8000 
      2500   298.16077      308.28389     -49016.487     -48708.203     -48742.465      81829.496      43.423246      43.39387       43.426938     -670.82878     -1665.0102      609.77302     -957.24914      890.31093     -128.28717      1095.8418           8000 
      2600   298.70623      308.84787     -49017.17      -48708.322     -48694.267      81822.749      43.412408      43.427374      43.40069       275.20368      467.89037     -1179.5764      1537.297      -1463.3757     -387.89287      845.69709           8000 
      2700   302.42141      312.68919     -49021.884     -48709.195     -48731.459      81830.687      43.415331      43.401718      43.427633     -435.90335     -488.71257      905.17569     -1724.1732      1100.9453     -2853.1529     -92.073932           8000 
      2800   303.54208      313.84791     -49023.746     -48709.898     -48765.915      81797.304      43.412486      43.421441      43.393042     -1097.2066     -1186.6456     -2466.5885      361.6144      -253.43968      3178.7878      556.39891           8000 
      2900   298.14534      308.26794     -49018.173     -48709.905     -48763.314      81804.309      43.404275      43.397079      43.429335     -1046.0417     -1098.2399     -229.4014      -1810.4838      2561.3014     -2518.3393     -2498.6375           8000 
      3000   301.55772      311.79618     -49016.7       -48704.904     -48678.896      81827.953      43.42247       43.42538       43.395383      509.23791     -344.23947      414.06813      1457.8851     -59.710204      1648.3881      731.48409           8000 
      3100   303.34105      313.64005     -49013.463     -48699.823     -48718.421      81830.268      43.405547      43.40727       43.431643     -364.12475      279.36623      1366.4962     -2738.2367     -2177.2539     -146.01336     -2611.9195           8000 
      3200   302.19916      312.4594      -49016.726     -48704.267     -48786.472      81836.969      43.420867      43.423918      43.40323      -1609.3837     -1145.9326     -3131.3612     -550.85727      1381.0891     -178.14048     -188.13418           8000 
      3300   299.77209      309.94992     -49019.736     -48709.786     -48714.466      81815.972      43.409934      43.398182      43.428759     -91.632749      283.99999      958.0622      -1516.9604     -3629.7205      1184.616      -1818.2816           8000 
      3400   300.0781       310.26632     -49021.667     -48711.401     -48628.934      81800.059      43.415469      43.42138       43.391583      1615.2333      488.74669      1617.465       2739.4883      2614.1864     -451.86124      2581.8944           8000 
      3500   299.5005       309.66911     -49020.217     -48710.547     -48598.144      81781.285      43.39864       43.399871      43.419956      2202.0933      2726.2445      3462.9035      417.13176     -4939.7039      2869.4899     -219.60608           8000 
      3600   302.24981      312.51176     -49017.467     -48704.955     -48608.618      81792.635      43.419262      43.412963      43.392266      1887.0722      1504.9527      1369.3306      2786.9331      911.55658     -1353.84        3674.435            8000 
      3700   307.50453      317.94489     -49019.244     -48701.299     -48798.411      81849.808      43.406305      43.412141      43.436381     -1900.9218     -1005.869      -898.21777     -3798.6785     -1716.0154      2227.0077      645.4286            8000 
      3800   299.85376      310.03436     -49015.746     -48705.712     -48774.043      81871.511      43.429004      43.426661      43.410671     -1337.1974     -1599.2486     -2250.4758     -161.86795      589.19979     -1476.5203      1126.7023           8000 
      3900   298.87198      309.01925     -49019.102     -48710.082     -48633.544      81782.637      43.391732      43.401575      43.42588       1499.4273      2956.3621      2000.502.7493      1468.1114           8000 
      2500   298.16077      308.28389     -49016.487     -48708.203     -48742.465      81829.496      43.423246      43.39387       43.426938     -670.82878     -1665.0102      609.77302     -957.24914      890.31093     -128.28717      1095.8418           8000 
      2600   298.70623      308.84787     -49017.17      -48708.322     -48694.267      81822.749      43.412408      43.427374      43.40069       275.20368      467.89037     -1179.5764      1537.297      -1463.3757     -387.89287      845.69709           8000 
      2700   302.42141      312.68919     -49021.884     -48709.195     -48731.459      81830.687      43.415331      43.401718      43.427633     -435.90335     -488.71257      905.17569     -1724.1732      1100.9453     -2853.1529     -92.073932           8000 
      2800   303.54208      313.84791     -49023.746     -48709.898     -48765.915      81797.304      43.412486      43.421441      43.393042     -1097.2066     -1186.6456     -2466.5885      361.6144      -253.43968      3178.7878      556.39891           8000 
      2900   298.14534      308.26794     -49018.173     -48709.905     -48763.314      81804.309      43.404275      43.397079      43.429335     -1046.0417     -1098.2399     -229.4014      -1810.4838      2561.3014     -2518.3393     -2498.6375           8000 
      3000   301.55772      311.79618     -49016.7       -48704.904     -48678.896      81827.953      43.42247       43.42538       43.395383      509.23791     -344.23947      414.06813      1457.8851     -59.710204      1648.3881      731.48409           8000 
      3100   303.34105      313.64005     -49013.463     -48699.823     -48718.421      81830.268      43.405547      43.40727       43.431643     -364.12475      279.36623      1366.4962     -2738.2367     -2177.2539     -146.01336     -2611.9195           8000 
      3200   302.19916      312.4594      -49016.726     -48704.267     -48786.472      81836.969      43.420867      43.423918      43.40323      -1609.3837     -1145.9326     -3131.3612     -550.85727      1381.0891     -178.14048     -188.13418           8000 
      3300   299.77209      309.94992     -49019.736     -48709.786     -48714.466      81815.972      43.409934      43.398182      43.428759     -91.632749      283.99999      958.0622      -1516.9604     -3629.7205      1184.616      -1818.2816           8000 
      3400   300.0781       310.26632     -49021.667     -48711.401     -48628.934      81800.059      43.415469      43.42138       43.391583      1615.2333      488.74669      1617.465       2739.4883      2614.1864     -451.86124      2581.8944           8000 
      3500   299.5005       309.66911     -49020.217     -48710.547     -48598.144      81781.285      43.39864       43.399871      43.419956      2202.0933      2726.2445      3462.9035      417.13176     -4939.7039      2869.4899     -219.60608           8000 
      3600   302.24981      312.51176     -49017.467     -48704.955     -48608.618      81792.635      43.419262      43.412963      43.392266      1887.0722      1504.9527      1369.3306      2786.9331      911.55658     -1353.84        3674.435            8000 
      3700   307.50453      317.94489     -49019.244     -48701.299     -48798.411      81849.808      43.406305      43.412141      43.436381     -1900.9218     -1005.869      -898.21777     -3798.6785     -1716.0154      2227.0077      645.4286            8000 
      3800   299.85376      310.03436     -49015.746     -48705.712     -48774.043      81871.511      43.429004      43.426661      43.410671     -1337.1974     -1599.2486     -2250.4758     -161.86795      589.19979     -1476.5203      1126.7023           8000 
      3900   298.87198      309.01925     -49019.102     -48710.082     -48633.544      81782.637      43.391732      43.401575      43.42588       1499.4273      2956.3621      2000.5014     -458.5816       184.76991      1741.9264      2358.4256           8000 
      4000   296.58579      306.65544     -49016.723     -48710.067     -48530.66       81760.338      43.411029      43.414622      43.3817        3515.6708System init for write_restart ...
1
1000
Setting up Verlet run ...
  Unit style    : metal
  Current step  : 0
  Time step     : 0.001
Per MPI rank memory allocation (min/avg/max) = 3.139 | 3.15 | 3.159 Mbytes
   Step          Temp          KinEng         PotEng         TotEng        Enthalpy        Volume           Lx           Press           Pxx            Pyy            Pzz            Pyz      
         0   298.89431      309.04234     -49017.395     -48708.353     -48761.194      81859.625      43.422398     -1034.2266     -1117.7442     -248.85885     -1736.0768      312.94069    
       100   300.76189      310.97333     -49019.666     -48708.692     -48701.731      81787.423      43.408019      136.36805      101.48323     -62.338954      369.95989     -263.98997    
       200   297.96383      308.08027     -49019.779     -48711.699     -48596.932      81773.104      43.398783      2248.6188      2187.3827      2073.3698      2485.1038     -595.23504    
       300   293.89671      303.87506     -49020.801     -48716.926     -48734.992      81813.267      43.418692     -353.78443     -1748.7496      908.23517     -220.83881     -1365.6889    
       400   296.60563      306.67596     -49022.122     -48715.446     -48841.73       81848.71       43.413652     -2471.9953     -2394.6404     -2844.6276     -2176.7178     -1597.7945    
       500   298.16855      308.29194     -49016.738     -48708.446     -48793.524      81840.423      43.421749     -1665.5553     -2774.767      -784.99092     -1436.9081     -1999.2611    
Loop time of 1.93019 on 8 procs for 500 steps with 8000 atoms

Performance: 22.381 ns/day, 1.072 hours/ns, 259.041 timesteps/s
99.7% CPU use with 8 MPI tasks x no OpenMP threads

MPI task timing breakdown:
Section |  min time  |  avg time  |  max time  |%varavg| %total
---------------------------------------------------------------
Pair    | 1.8128     | 1.8417     | 1.8618     |   1.2 | 95.41
Neigh   | 0          | 0          | 0          |   0.0 |  0.00
Comm    | 0.035275   | 0.05528    | 0.084032   |   7.0 |  2.86
Output  | 0.00017511 | 0.00017996 | 0.00018753 |   0.0 |  0.01
Modify  | 0.02989    | 0.029956   | 0.030032   |   0.0 |  1.55
Other   |            | 0.003113   |            |       |  0.16

Nlocal:           1000 ave        1011 max         984 min
Histogram: 1 1 0 0 1 1 0 1 1 2
Nghost:           2060 ave        2076 max        2049 min
Histogram: 2 1 1 0 1 1 0 0 1 1
Neighs:              0 ave           0 max           0 min
Histogram: 8 0 0 0 0 0 0 0 0 0
FullNghs:        46000 ave       46506 max       45264 min
Histogram: 1 1 0 0 1 1 0 1 1 2

Total # of neighbors = 368000
Ave neighs/atom = 46
Neighbor list builds = 0
Dangerous builds = 0
System init for write_restart ...
Setting up Verlet run ...
  Unit style    : metal
  Current step  : 500
  Time step     : 0.001
Per MPI rank memory allocation (min/avg/max) = 3.139 | 3.15 | 3.159 Mbytes
   Step          Temp          KinEng         PotEng         TotEng        Enthalpy        Volume           Lx           Press           Pxx            Pyy            Pzz            Pyz      
       500   298.16855      308.29194     -49016.738     -48708.446     -48793.524      81840.423      43.421749     -1665.5553     -2774.767      -784.99092     -1436.9081     -1999.2611    
       600   302.50127      312.77176     -49021.411     -48708.64      -48740.033      81796.165      43.408264     -614.92531      87.697173     -1760.1903     -172.28282     -1096.0552    
       700   298.44255      308.57524     -49019.449     -48710.874     -48687.356      81786.462      43.40854       460.71282      593.98971      1601.8467     -813.69801     -540.60683    
       800   295.71838      305.75858     -49021.229     -48715.47      -48725.055      81788.492      43.40582      -187.76816      134.94131     -793.61128      95.365491      948.97914    
       900   296.34201      306.40338     -49021.309     -48714.906     -48761.954      81807.927      43.414556     -921.43257     -1159.7094      184.16223     -1788.7505      323.96903    
      1000   298.1679       308.29127     -49016.336     -48708.045     -48692.837      81832.588      43.415015      297.74911     -22.671572     -237.55629      1153.4752      1428.5792    
      1100   300.34993      310.54738     -49016.492     -48705.944     -48574.942      81776.558      43.402126      2566.6252      2865.0468      2838.5476      1996.2812      636.29523    
      1200   298.54001      308.67601     -49015.835     -48707.159     -48565.047      81749.858      43.403056      2785.1919      2989.4037      2847.1173      2519.0546      1413.9979    
      1300   299.44779      309.61461     -49020.789     -48711.175     -48813.614      81827.428      43.412437     -2005.7539     -2209.6465     -1141.0172     -2666.598       190.09785    
      1400   295.01824      305.03467     -49022.414     -48717.38      -48885.707      81864.25       43.425506     -3294.3565     -3534.7918     -2309.9341     -4038.3435     -131.79104    
      1500   292.51542      302.44688     -49021.408     -48718.961     -48750.93       81807.012      43.409361     -626.0999       513.57684     -617.3017      -1774.5748     -962.54193    
      1600   303.2357       313.53113     -49022.609     -48709.078     -48624.016      81762.666      43.406446      1666.8231      1184.6372      1110.5817      2705.2502     -150.57022    
      1700   300.4392       310.63968     -49016.817     -48706.177     -48603.449      81774.902      43.393501      2012.7051      2871.3454      2994.5387      172.23112     -2375.1697    
      1800   298.78519      308.92951     -49015.165     -48706.235     -48832.696      81875.752      43.433417     -2474.6424     -3848.5545     -3610.7889      35.416268     -1283.3476    
      1900   297.45994      307.55927     -49017.674     -48710.115     -48822.402      81864.896      43.415584     -2197.5556     -2259.6704      35.161959     -4368.1584     -1472.3624    
      2000   302.84492      313.12708     -49026.752     -48713.625     -48714.272      81786.289      43.406502     -12.676899      164.83608     -288.83072      85.963947     -562.00116    
      2100   295.84327      305.88771     -49018.752     -48712.865     -48570.997      81734.062      43.389576      2780.9334      3810.2089      3878.401       654.19027     -529.2776     
      2200   303.30486      313.60264     -49018.1       -48704.497     -48656.338      81812.124      43.416881      943.12916      1792.473      -231.27866      1268.1931     -308.89018    
      2300   300.7497       310.96072     -49014.725     -48703.764     -48778.501      81875.425      43.416376     -1462.4788     -816.29652     -1324.7361     -2246.4039      596.37296    
      2400   299.32681      309.48953     -49017.433     -48707.943     -48729.373      81838.253      43.42085      -419.5444      -521.23919     -2794.4525      2057.0585      2166.4694    
      2500   300.61665      310.82316     -49022.262     -48711.439     -48664.11       81764.041      43.406663      927.42055      590.75718      1959.2934      232.21104     -89.525346    
Loop time of 7.85868 on 8 procs for 2000 steps with 8000 atoms

Performance: 21.988 ns/day, 1.091 hours/ns, 254.496 timesteps/s
99.7% CPU use with 8 MPI tasks x no OpenMP threads

MPI task timing breakdown:
Section |  min time  |  avg time  |  max time  |%varavg| %total
---------------------------------------------------------------
Pair    | 7.2386     | 7.3649     | 7.6129     |   5.2 | 93.72
Neigh   | 0          | 0          | 0          |   0.0 |  0.00
Comm    | 0.11136    | 0.35762    | 0.48406    |  23.3 |  4.55
Output  | 0.0007254  | 0.00073647 | 0.0007448  |   0.0 |  0.01
Modify  | 0.12129    | 0.12201    | 0.12274    |   0.2 |  1.55
Other   |            | 0.0134     |            |       |  0.17

Nlocal:           1000 ave        1031 max         982 min
Histogram: 2 1 2 0 1 0 0 0 1 1
Nghost:           2060 ave        2078 max        2029 min
Histogram: 1 1 0 0 0 1 0 2 1 2
Neighs:              0 ave           0 max           0 min
Histogram: 8 0 0 0 0 0 0 0 0 0
FullNghs:        46000 ave       47426 max       45172 min
Histogram: 2 1 2 0 1 0 0 0 1 1

Total # of neighbors = 368000
Ave neighs/atom = 46
Neighbor list builds = 0
write_restart   restaSystem init for write_restart ...
Setting up Verlet run ...
  Unit style    : metal
  Current step  : 0
  Time step     : 0.001
Per MPI rank memory allocation (min/avg/max) = 3.139 | 3.15 | 3.159 Mbytes
   Step          Temp          KinEng         PotEng         TotEng        Enthalpy        Volume           Lx           Press           Pxx            Pyy            Pzz            Pyz      
         0   300.61665      310.82316     -49022.262     -48711.439     -48664.11       81764.041      43.406663      927.42055      590.75718      1959.2934      232.21104     -89.525346    
       100   297.73096      307.83949     -49017.893     -48710.054     -48614.669      81765.149      43.402193      1869.051       2316.2509      578.74735      2712.1546     -65.801945    
       200   301.47728      311.71301     -49016.041     -48704.328     -48808.904      81843.571      43.415614     -2047.1885     -1397.1281     -2110.7398     -2633.6975     -827.81433    
       300   306.11726      316.51052     -49016.992     -48700.482     -48806.474      81872.209      43.430526     -2074.19       -1866.9275     -3117.7987     -1237.8439     -1842.159     
       400   300.20352      310.39601     -49014.75      -48704.354     -48547.009      81782.773      43.395381      3082.4908      4012.7267      4675.1141      559.63162     -1756.9881    
       500   300.3838       310.5824      -49017.896     -48707.314     -48566.538      81779.255      43.4185        2758.0054      2688.5402      494.35302      5091.1229     -97.145745    
       600   296.7353       306.81003     -49016.497     -48709.687     -48788.092      81833.709      43.402752     -1535.0425      472.47766     -558.31267     -4519.2926     -903.65048    
       700   296.33803      306.39926     -49017.463     -48711.063     -48766.056      81841.077      43.43069      -1076.573      -1597.7198     -2433.2642      801.26515     -1542.0178    
       800   299.15443      309.31129     -49020.385     -48711.074     -48773.631      81833.247      43.40213      -1224.7756     -1144.7546      706.02766     -3235.6         226.60795    
       900   302.42089      312.68865     -49020.076     -48707.388     -48663.218      81792.095      43.415335      865.21243     -559.82961      196.32041      2959.1465      378.33251    
      1000   300.47177      310.67336     -49013.908     -48703.235     -48620.762      81786.672      43.39993       1615.6273      1325.5083      1979.734       1541.6396      361.19017    
      1100   304.38216      314.71651     -49019.643     -48704.927     -48733.553      81826.782      43.4183       -560.51674     -981.27867     -1052.473       352.20145     -125.77747    
      1200   297.43926      307.53789     -49019.702     -48712.164     -48747.532      81838.442      43.412525     -692.41087      717.22133     -536.37083     -2258.0831     -418.9102     
      1300   297.90497      308.01941     -49020.92      -48712.9       -48774.234      81831.39       43.420381     -1200.8542     -1110.2527     -2017.8882     -474.42176      40.541363    
      1400   299.34984      309.51334     -49019.75      -48710.237     -48601.095      81775.406      43.402157      2138.3414      2477.1174      1447.9307      2489.976      -1752.5083    
      1500   304.60234      314.94417     -49021.287     -48706.343     -48671.549      81790.453      43.408521      681.58318      1295.3683      116.46147      632.91973     -1257.3122    
      1600   302.64038      312.91559     -49015.868     -48702.952     -48766.71       81852.677      43.418199     -1247.9799     -487.64485     -2415.5645     -840.7302      -1925.9311    
      1700   303.29142      313.58874     -49014.021     -48700.432     -48670.715      81845.779      43.409861      581.74394      1446.5442      552.25789     -253.57026     -803.78395    
      1800   301.90185      312.15199     -49017.502     -48705.35      -48662.009      81803.278      43.419869      848.86378     -466.96636      888.11753      2125.4402     -2510.7851    
      1900   298.71968      308.86178     -49019.877     -48711.015     -48653.223      81795.319      43.395058      1131.9971      2733.1886      1707.8945     -1045.092      -516.97207    
      2000   299.12179      309.27754     -49021.529     -48712.252     -48789.25       81791.808      43.414071     -1508.2799     -1277.9626     -3640.0152      393.13817      867.94509    
      2100   299.86417      310.04513     -49019.371     -48709.326     -48696.233      81798.39       43.402025      256.45377      21.160024      1397.9517     -649.75044      353.24235    
      2200   299.31829      309.48072     -49013.012     -48703.532     -48746.925      81830.622      43.423709     -849.61333     -1874.1989     -1504.731       830.08992      559.47912    
      2300   305.02652      315.38275     -49018.484     -48703.101     -48709.805      81828.119      43.414103     -131.25053      39.028013      637.22219     -1070.0018      842.06129    
      2400   300.26074      310.45516     -49019.308     -48708.853     -48786.802      81809.665      43.415405     -1526.5627     -2320.6283     -1841.6904     -417.36955      904.81048    
      2500   301.57683      311.81594     -49022.767     -48710.951     -48817.502      81842.825      43.414833     -2085.8559     -1281.335      -2055.0499     -2921.1828     -256.92367    
      2600   299.52158      309.6909      -49019.894     -48710.203     -48711.655      81811.926      43.409672     -28.449673      888.97978     -1394.6688      420.34002     -1019.723     
      2700   297.93158      308.04693     -49016.198     -48708.151     -48677.628      81813.576      43.410792      597.73754      590.45787      1320.698      -117.94321     -2637.798     
      2800   301.29564      311.5252      -49017.532     -48706.007     -48640.448      81805.552      43.413086      1283.9797      1609.2375      1279.4878      963.21369     -1945.208     
      2900   301.22576      311.45295     -49017.463     -48706.01      -48740.525      81836.774      43.411461     -675.71719     -231.36515     -207.635       -1588.1514     -2334.8135    
      3000   295.41883      305.44886     -49016.682     -48711.234     -48697.355      81826.954      43.42806       271.74585     -1627.6312      444.95084      1997.9179     -584.89919    
      3100   299.17498      309.33254     -49024.245     -48714.912     -48779.937      81803.678      43.390777     -1273.5466      154.75622     -1115.3037     -2860.0924     -588.89576    
      3200   299.49114      309.65944     -49022.012     -48712.352     -48619.739      81765.002      43.420698      1814.7489     -447.80148      4327.9335      1564.1147      1106.8474    
      3300   301.84473      312.09293     -49017.982     -48705.889     -48640.518      81782.989      43.39025       1280.6433      2112.9266     -170.27367      1899.277       1102.523     
      3400   300.85829      311.073       -49016.472     -48705.399     -48739.729      81871.653      43.440065     -671.8284      -2578.9296      1047.0197     -483.57522      1183.0061    
      3500   303.05037      313.33951     -49021.285     -48707.945     -48735.954      81825.659      43.399388     -548.42158      455.93555     -973.75751     -1127.4428      966.72583    
      3600   298.0474       308.16668     -49019.514     -48711.348     -48627.976      81739.161      43.412373      1634.1734      4.1129643      2514.6958      2383.7116     -414.51306    
      3700   303.09769      313.38843     -49026.4       -48713.012     -48848.944      81824.009      43.398356     -2661.6571     -1659.0284     -3413.6927     -2912.2501     -798.40094    
      3800   297.64492      307.75053     -49016.182     -48708.432     -48791.516      81862.991      43.433691     -1626.0838     -2183.3671     -1685.5322     -1009.3521     -2017.6379    
      3900   305.99353      316.38259     -49018.751     -48702.368     -48641.62       81786.908      43.391104      1190.03        1418.948       477.96533      1673.1768     -1664.7391    
      4000   305.12621      315.48583     -49019.781     -48704.295     -48623.214      81731.844      43.412589      1589.4223     -780.92006      3992.9936      1556.1935     -2545.2082    
      4100   298.6501       308.78984     -49018.592     -48709.802     -48731.38       81806.878      43.395763     -422.59354      791.14301     -1133.5706     -925.35302     -1719.6452    
      4200   295.38679      305.41573     -49016.991     -48711.575     -48848.18       81891.856      43.441519     -2672.6044     -4073.9162     -1798.1316     -2145.7654     -826.64071    
      4300   302.19137      312.45135     -49022.905     -48710.453     -48800.818      81802.911      43.397577     -1769.8748     -1187.8113     -2871.1528     -1250.6604     -469.39146    
      4400   298.36185      308.4918      -49016.279     -48707.788     -48570.572      81761.257      43.419734      2688.8543      1307.7951      4236.8225      2521.9453      647.33237    
      4500   305.19206      315.55391     -49016.649     -48701.095     -48699.909      81821.428      43.39926       23.228029      1735.4301     -952.24201     -713.50401      550.00215    
      4600   305.52576      315.89894     -49013.856     -48697.957     -48816.93       81909.033      43.447629     -2327.1734     -4006.1509     -1058.4288     -1916.9406      384.29927    
      4700   303.13579      313.42783     -49017.582     -48704.154     -48717.135      81817.157      43.400883     -254.19878      1301.9592     -1532.4553     -532.10026      379.24419    
      4800   302.35481      312.62033     -49020.269     -48707.649     -48717.236      81788.743      43.417814     -187.80477     -1059.9049      1176.358      -679.86742      681.42836    
      4900   299.59882      309.77077     -49020.251     -48710.48      -48654.856      81773.408      43.398905      1089.8388      1126.0052     -428.47638      2571.9876      96.186453    
      5000   302.50124      312.77174     -49024.717     -48711.945     -48694.388      81797.502      43.415464      343.89596     -208.8635       1313.6027     -73.051312     -2264.8372    
Loop time of 20.2997 on 8 procs for 5000 steps with 8000 atoms

Performance: 21.281 ns/day, 1.128 hours/ns, 246.309 timesteps/s
99.7% CPU use with 8 MPI tasks x no OpenMP threads

MPI task timing breakdown:
Section |  min time  |  avg time  |  max time  |%varavg| %total
---------------------------------------------------------------
Pair    | 18.658     | 19.043     | 19.342     |   5.0 | 93.81
Neigh   | 0          | 0          | 0          |   0.0 |  0.00
Comm    | 0.30578    | 0.60263    | 0.98618    |  27.9 |  2.97
Output  | 0.0014143  | 0.0015094  | 0.0019286  |   0.4 |  0.01
Modify  | 0.61664    | 0.61946    | 0.62095    |   0.2 |  3.05
Other   |            | 0.03305    |            |       |  0.16

Nlocal:           1000 ave        1013 max         982 min
Histogram: 2 0 0 0 0 1 1 2 0 2
Nghost:           2060 ave        2078 max        2047 min
Histogram: 2 0 2 1 1 0 0 0 0 2
Neighs:              0 ave           0 max           0 min
Histogram: 8 0 0 0 0 0 0 0 0 0
FullNghs:        46000 ave       46598 max       45172 min
Histogram: 2 0 0 0 0 1 1 2 0 2

Total # of neighbors = 368000
Ave neighs/atom = 46
Neighbor list builds = 0
Dangerous builds = 0
System init for write_restart ...
1001
2000
Setting up Verlet run ...
  Unit style    : metal
  Current step  : 0
  Time step     : 0.001
Per MPI rank memory allocation (min/avg/max) = 3.139 | 3.15 | 3.159 Mbytes
   Step          Temp          KinEng         PotEng         TotEng        Enthalpy        Volume           Lx           Press           Pxx            Pyy            Pzz            Pyz      
         0   302.50124      312.77174     -49024.717     -48711.945     -48694.388      81797.502      43.415464      343.89596     -208.8635       1313.6027     -73.051312     -2264.8372    
       100   297.79078      307.90135     -49017.844     -48709.943     -48638.391      81773.833      43.396362      1401.9137      1711.25       -51.810779      2546.3019     -914.57018    
       200   304.08167      314.40582     -49018.245     -48703.839     -48764.04       81835.968      43.412308     -1178.6221     -980.62063     -766.09418     -1789.1514     -1914.9504    
       300   304.05721      314.38053     -49015.179     -48700.798     -48711.297      81848.853      43.419409     -205.52071     -156.39134     -968.96382      508.79303     -1897.4477    
       400   304.66862      315.0127      -49021.68      -48706.667     -48713.133      81799.35       43.40775      -126.63723     -638.79068      819.07746     -560.19847     -1075.8385    
       500   299.34034      309.50351     -49020.409     -48710.905     -48621.758      81757.734      43.40051       1746.9822      2476.5413     -241.47071      3005.8759      95.403761    
Loop time of 1.93527 on 8 procs for 500 steps with 8000 atoms

Performance: 22.322 ns/day, 1.075 hours/ns, 258.362 timesteps/s
99.7% CPU use with 8 MPI tasks x no OpenMP threads

MPI task timing breakdown:
Section |  min time  |  avg time  |  max time  |%varavg| %total
---------------------------------------------------------------
Pair    | 1.8059     | 1.844      | 1.868      |   1.5 | 95.28
Neigh   | 0          | 0          | 0          |   0.0 |  0.00
Comm    | 0.033956   | 0.057903   | 0.096017   |   8.3 |  2.99
Output  | 0.00017475 | 0.00017884 | 0.00019397 |   0.0 |  0.01
Modify  | 0.029773   | 0.030009   | 0.030163   |   0.1 |  1.55
Other   |            | 0.003168   |            |       |  0.16

Nlocal:           1000 ave        1012 max         978 min
Histogram: 1 0 1 0 0 0 2 0 2 2
Nghost:           2060 ave        2082 max        2048 min
Histogram: 2 2 0 2 0 0 0 1 0 1
Neighs:              0 ave           0 max           0 min
Histogram: 8 0 0 0 0 0 0 0 0 0
FullNghs:        46000 ave       46552 max       44988 min
Histogram: 1 0 1 0 0 0 2 0 2 2

Total # of neighbors = 368000
Ave neighs/atom = 46
Neighbor list builds = 0
Dangerous builds = 0
System init for write_restart ...
Setting up Verlet run ...
  Unit style    : metal
  Current step  : 500
  Time step     : 0.001
Per MPI rank memory allocation (min/avg/max) = 3.139 | 3.15 | 3.159 Mbytes
   Step          Temp          KinEng         PotEng         TotEng        Enthalpy        Volume           Lx           Press           Pxx            Pyy            Pzz            Pyz      
       500   299.34034      309.50351     -49020.409     -48710.905     -48621.758      81757.734      43.40051       1746.9822      2476.5413     -241.47071      3005.8759      95.403761    
       600   300.27244      310.46726     -49020.16      -48709.693     -48720.898      81790.146      43.414133     -219.49716     -1800.7997      1538.6158     -396.30754      2016.3145    
       700   299.48497      309.65305     -49013.855     -48704.202     -48806.922      81855.106      43.417059     -2010.571      -2694.1871     -2995.9322     -341.59362      1253.0513    
       800   303.18084      313.4744      -49013.639     -48700.165     -48823.205      81866.125      43.422477     -2407.9759     -2787.9025     -358.2658      -4077.7593      1264.0887    
       900   302.00894      312.26271     -49017.548     -48705.285     -48639.966      81798.938      43.401552      1279.3939      2339.4337      6.9790608      1491.7689      736.65923    
      1000   298.5169       308.65212     -49018.074     -48709.422     -48610.949      81769.154      43.409763      1929.4716      1011.0064      3243.8487      1533.5596     -1171.0475    
      1100   297.87616      307.98962     -49017.787     -48709.797     -48639.684      81785.864      43.39657       1373.5174      1706.1688      1667.685       746.69835     -456.79632    
      1200   295.7656       305.8074      -49015.018     -48709.21      -48808.662      81865.73       43.429508     -1946.3583     -2922.0125     -983.89609     -1933.1662     -1778.1665    
      1300   298.98214      309.13315     -49016.315     -48707.182     -48746.287      81858.771      43.409514     -765.37534      11.535901     -1255.4463     -1052.2156     -13.255518    
      1400   302.62571      312.90043     -49017.445     -48704.544     -48478.881      81750.187      43.413293      4422.6502      4780.9576      4898.9913      3588.0017     -2232.8856    
      1500   304.07202      314.39585     -49019.176     -48704.78      -48479.974      81749.841      43.386903      4405.8757      4293.4836      5715.2148      3208.9288     -1658.2577    
      1600   296.43244      306.49689     -49017.196     -48710.699     -48842.073      81857.585      43.428474     -2571.3373     -3897.4388     -2774.9463     -1041.6268     -1051.9701    
      1700   296.63691      306.7083      -49020.584     -48713.876     -48852.11       81862.447      43.405136     -2705.4483     -1993.197      -1353.0359     -4770.1121     -189.12738    
      1800   297.11756      307.20527     -49018.525     -48711.319     -48706.802      81802.48       43.419118      88.478124     -1329.9679      85.754711      1509.6476     -1807.7105    
      1900   306.45395      316.85864     -49022.086     -48705.228     -48640.046      81762.272      43.393613      1277.2808      2499.4652      2107.4859     -775.10851      1124.2648    
      2000   303.31218      313.61021     -49017.247     -48703.637     -48690.157      81808.217      43.419264      263.98745      66.102738     -283.62295      1009.4826      848.18553    
      2100   303.35179      313.65116     -49019.586     -48705.935     -48780.254      81848.271      43.410246     -1454.8017     -583.0272      -964.98755     -2816.3904      404.15644    
      2200   301.84438      312.09257     -49021.485     -48709.393     -48785.127      81852.712      43.430833     -1482.4199     -3637.1528     -1357.1343      547.02733     -1464.9904    
      2300   299.30914      309.47125     -49022.198     -48712.727     -48713.106      81798.546      43.396839     -7.4290068     -18.918492      1871.1291     -1874.4976     -593.34785    
      2400   298.70524      308.84686     -49021.593     -48712.746     -48619.426      81779.872      43.414691      1828.2621      1257.9522      1197.9365      3028.8975     -1542.5462    
      2500   301.75859      312.00387     -49017.632     -48705.628     -48663.92       81820.238      43.408069      816.71628      1562.2959      28.984409      858.8685      -1014.222     
Loop time of 7.76978 on 8 procs for 2000 steps with 8000 atoms

Performance: 22.240 ns/day, 1.079 hours/ns, 257.407 timesteps/s
99.7% CPU use with 8 MPI tasks x no OpenMP threads

MPI task timing breakdown:
Section |  min time  |  avg time  |  max time  |%varavg| %total
---------------------------------------------------------------
Pair    | 7.1405     | 7.3687     | 7.4954     |   4.7 | 94.84
Neigh   | 0          | 0          | 0          |   0.0 |  0.00
Comm    | 0.13992    | 0.26663    | 0.49446    |  24.4 |  3.43
Output  | 0.00073476 | 0.00074754 | 0.00076568 |   0.0 |  0.01
Modify  | 0.11963    | 0.12057    | 0.12193    |   0.2 |  1.55
Other   |            | 0.01311    |            |       |  0.17

Nlocal:           1000 ave        1015 max         974 min
Histogram: 1 1 0 0 0 1 1 0 1 3
Nghost:           2060 ave        2086 max        2045 min
Histogram: 3 1 0 1 1 0 0 0 1 1
Neighs:              0 ave           0 max           0 min
Histogram: 8 0 0 0 0 0 0 0 0 0
FullNghs:        46000 ave       46690 max       44804 min
Histogram: 1 1 0 0 0 1 1 0 1 3

Total # of neighbors = 368000
Ave neighs/atom = 46
Neighbor list builds = 0
Dangerous builds = 0
System init for write_restart ...
Setting up Verlet run ...
  Unit style    : metal
  Current step  : 0
  Time step     : 0.001
Per MPI rank memory allocation (min/avg/max) = 3.139 | 3.15 | 3.159 Mbytes
   Step          Temp          KinEng         PotEng         TotEng        Enthalpy        Volume           Lx           Press           Pxx            Pyy            Pzz            Pyz      
         0   301.75859      312.00387     -49017.632     -48705.628     -48663.92       81820.238      43.408069      816.71628      1562.2959      28.984409      858.8685      -1014.222     
       100   298.88768      309.03549     -49016.165     -48707.129     -48683.011      81807.021      43.412136      472.35871      302.645        498.82548      615.60564      81.686278    
       200   296.52015      306.58757     -49020.299     -48713.711     -48681.697      81815.424      43.412869      626.92288     -12.809303      1736.5281      157.04986     -1535.863     
       300   296.80554      306.88265     -49022.971     -48716.088     -48646.744      81797.637      43.408775      1358.2459      2032.5354      688.92525      1353.277      -123.64034    
       400   295.5235       305.55708     -49018.826     -48713.269     -48687.07       81797.073      43.409347      513.17385      1072.8474      1263.0541     -796.37986     -464.24432    
       500   301.007        311.22676     -49021.609     -48710.382     -48602.846      81784.725      43.407365      2106.6624      1644.37        2777.7722      1897.8452     -33.965094    
       600   300.99383      311.21315     -49019.351     -48708.138     -48655.213      81805.008      43.413531      1036.5496      214.49618      1087.239       1807.9137     -111.2007     
       700   296.90383      306.98428     -49013.855     -48706.87      -48754.742      81852.449      43.414808     -937.043        1131.8459     -1773.381      -2169.594      -1051.1427    
       800   303.4857       313.78961     -49021.574     -48707.784     -48772.043      81847.996      43.426325     -1257.8734     -2400.983      -204.07118     -1168.5659      323.3096     
       900   295.22866      305.25223     -49018.059     -48712.807     -48617.245      81766.248      43.403155      1872.486       1782.5534      588.48874      3246.4158     -21.629358    
      1000   298.86786      309.01499     -49023.672     -48714.657     -48694.952      81784.523      43.411605      386.03076      656.78188      1603.7444     -1102.434      -1589.435     
      1100   299.95315      310.13713     -49020.479     -48710.342     -48854.252      81845.773      43.40839      -2817.1261     -2394.1085     -4788.3915     -1268.8784     -997.99564    
      1200   301.63506      311.87614     -49016.852     -48704.976     -48762.929      81858.954      43.432722     -1134.2856     -2100.2448      1154.731      -2457.3431     -979.13021    
      1300   302.98351      313.27038     -49018.906     -48705.636     -48579.506      81762.925      43.393907      2471.5657      3453.3027      798.94416      3162.4502     -1508.6444    
      1400   298.86983      309.01703     -49017.301     -48708.284     -48547.341      81759.787      43.413051      3153.8577      2059.5746      4780.8365      2621.1619     -733.94295    
      1500   299.30377      309.4657      -49020.267     -48710.801     -48798.014      81873.49       43.414309     -1706.6664     -1043.3995     -3963.4645     -113.13526     -1117.3807    
      1600   299.64135      309.81475     -49020.609     -48710.794     -48900.129      81887.199      43.428287     -3704.446      -4166.5969     -2145.2138     -4801.5274      1093.4187    
      1700   297.32964      307.42454     -49017.579     -48710.154     -48585.735      81783.01       43.403878      2437.4449      3689.8696      878.32386      2744.1413     -1257.2036    
      1800   304.08711      314.41145     -49023.753     -48709.342     -48592.787      81748.949      43.404544      2284.3282      1892.1222      2631.125       2329.7374      220.52633    
      1900   298.49613      308.63064     -49017.208     -48708.577     -48707.353      81815.951      43.408335      23.977632     -254.31478     -995.75833      1322.006       168.92901    
      2000   299.75862      309.93599     -49016.39      -48706.454     -48815.545      81865.753      43.425321     -2135.008      -2476.3729     -1097.121      -2831.5302      938.64249    
      2100   303.45239      313.75517     -49016.173     -48702.418     -48689.48       81825.54       43.407366      253.32259      713.13581     -1175.7736      1222.6056     -329.91637    
      2200   306.21906      316.61577     -49020.531     -48703.915     -48610.517      81777.614      43.412093      1829.8492      1666.2695      2788.5862      1034.6919     -773.14716    
      2300   296.04859      306.1         -49016.491     -48710.391     -48631.485      81781.967      43.391816      1545.8315      3297.9071      441.62864      897.95869     -533.50815    
      2400   297.66202      307.76821     -49019.972     -48712.203     -48786.447      81836.691      43.427922     -1453.5232     -3622.3369     -144.37996     -593.85272     -1145.1781    
      2500   297.22309      307.31438     -49017.842     -48710.528     -48789.846      81851.004      43.404967     -1552.5882      440.9425      -2528.0157     -2570.6914     -435.85155    
      2600   304.52348      314.86263     -49019.932     -48705.069     -48676.575      81806.401      43.420211      558.0652      -644.26582      2061.671       256.79039     -943.29154    
      2700   304.92242      315.27511     -49015.157     -48699.882     -48668.174      81811.697      43.397572      620.95457      2925.6051     -164.15675     -898.58461      59.594425    
      2800   300.52863      310.73215     -49015.658     -48704.926     -48678.868      81840.383      43.427908      510.13329     -254.75056      689.85845      1095.292       745.74748    
      2900   299.11529      309.27082     -49020.109     -48710.838     -48770.908      81837.889      43.396076     -1176.0184      939.23491     -1214.4796     -3252.8104      113.98387    
      3000   297.53112      307.63287     -49018.094     -48710.461     -48778.103      81826.859      43.432673     -1324.4295     -2152.3352     -3138.2274      1317.2739     -821.30129    
      3100   304.05054      314.37364     -49022.879     -48708.505     -48677.767      81785.216      43.385807      602.16195      2748.0572      265.29414     -1206.8655      848.99579    
      3200   302.36059      312.62631     -49018.527     -48705.901     -48615.919      81769.327      43.423187      1763.1043      1325.696       369.94939      3593.6675     -917.4547     
      3300   298.40065      308.53192     -49014.448     -48705.916     -48699.089      81852.559      43.402675      133.6375       1694.5246      285.86422     -1579.4763     -236.55253    
      3400   300.53931      310.74319     -49021.386     -48710.643     -48803.986      81839.008      43.435433     -1827.3935     -4037.9597     -1808.801       364.58013     -1433.8452    
      3500   295.67228      305.71091     -49020.526     -48714.815     -48689.121      81795.069      43.393358      503.27924      1552.9792      853.97519     -897.1167      -807.13847    
      3600   299.80364      309.98255     -49022.769     -48712.787     -48690.125      81782.829      43.425168      443.9523      -1440.5639      438.44808      2333.9727     -1203.7715    
      3700   296.06641      306.11843     -49013.167     -48707.048     -48580.264      81804.861      43.395379      2483.1247      3847.1099      1785.3513      1816.9128     -847.15051    
      3800   302.06438      312.32004     -49018.467     -48706.147     -48787.468      81810.966      43.429158     -1592.5786     -2916.5852     -2268.7463      407.59574     -1061.328     
      3900   299.75253      309.9297      -49017.599     -48707.669     -48712.248      81816.395      43.397447     -89.668594      757.90627     -44.100275     -982.81178     -57.400282    
      4000   299.74433      309.92122     -49020.91      -48710.989     -48840.219      81839.194      43.430534     -2529.9635     -4051.8137     -2624.1598     -913.91691     -834.62656    
      4100   294.62917      304.63239     -49018.467     -48713.834     -48663.454      81793.933      43.397265      986.84894      2600.8271      1584.6823     -1224.9626      902.82611    
      4200   298.32015      308.44868     -49023.254     -48714.805     -48676.26       81785.034      43.418998      755.10088     -1243.6479      1852.6052      1656.3454     -364.51029    
      4300   298.93373      309.08309     -49018.058     -48708.974     -48638.195      81795.858      43.396104      1386.396       2622.5496      1151.3546      385.28365      1032.3002    
      4400   301.39958      311.63267     -49016.235     -48704.602     -48719.822      81827.907      43.428622     -298.00375     -1982.8754      800.303        288.56113     -663.40558    
      4500   301.58738      311.82685     -49017.681     -48705.854     -48745.031      81861.946      43.407554     -766.76941      956.7377      -2072.9349     -1184.111      -111.00274    
      4600   298.18311      308.307       -49019.891     -48711.584     -48762.114      81819.683      43.423209     -989.47425     -1263.9073     -1834.1966      129.68118     -1269.7035    
      4700   296.65036      306.7222      -49020.678     -48713.955     -48682.809      81816.806      43.401808      609.93375      2334.9441     -498.99959     -6.1432169     -159.48118    
      4800   296.42442      306.48859     -49018.814     -48712.326     -48673.209      81787.478      43.414441      766.27908      972.65907      326.54897      999.62919     -915.44567    
      4900   302.60555      312.87959     -49022.635     -48709.755     -48738.644      81783.133      43.398211     -565.94482      229.28674     -714.06049     -1213.0607     -4.7515596    
      5000   298.99917      309.15076     -49016.903     -48707.752     -48783.302      81839.826      43.428767     -1479.0448     -2610.0809     -1209.717      -617.33652      269.90631    
Loop time of 20.4114 on 8 procs for 5000 steps with 8000 atoms

Performance: 21.165 ns/day, 1.134 hours/ns, 244.961 timesteps/s
99.6% CPU use with 8 MPI tasks x no OpenMP threads

MPI task timing breakdown:
Section |  min time  |  avg time  |  max time  |%varavg| %total
---------------------------------------------------------------
Pair    | 18.673     | 19.053     | 19.495     |   5.7 | 93.34
Neigh   | 0          | 0          | 0          |   0.0 |  0.00
Comm    | 0.26292    | 0.70351    | 1.0828     |  29.8 |  3.45
Output  | 0.001406   | 0.0014931  | 0.001961   |   0.5 |  0.01
Modify  | 0.62002    | 0.62098    | 0.62206    |   0.1 |  3.04
Other   |            | 0.03262    |            |       |  0.16

Nlocal:           1000 ave        1021 max         982 min
Histogram: 1 1 1 0 2 0 1 1 0 1
Nghost:           2060 ave        2078 max        2039 min
Histogram: 1 0 1 1 0 2 0 1 1 1
Neighs:              0 ave           0 max           0 min
Histogram: 8 0 0 0 0 0 0 0 0 0
FullNghs:        46000 ave       46966 max       45172 min
Histogram: 1 1 1 0 2 0 1 1 0 1

Total # of neighbors = 368000
Ave neighs/atom = 46
Neighbor list builds = 0
Dangerous builds = 0
System init for write_restart ...
2001
3000
Setting up Verlet run ...
  Unit style    : metal
  Current step  : 0
  Time step     : 0.001
Per MPI rank memory allocation (min/avg/max) = 3.139 | 3.15 | 3.159 Mbytes
   Step          Temp          KinEng         PotEng         TotEng        Enthalpy        Volume           Lx           Press           Pxx            Pyy            Pzz            Pyz      
         0   298.99917      309.15076     -49016.903     -48707.752     -48783.302      81839.826      43.428767     -1479.0448     -2610.0809     -1209.717      -617.33652      269.90631    
       100   300.33677      310.53377     -49018.798     -48708.264     -48737.478      81830.466      43.401619     -571.9902       470.92787      29.017058     -2215.9155      231.62106    
       200   298.74175      308.8846      -49021.412     -48712.527     -48828.245      81813.746      43.42302      -2266.1183     -2363.5306     -1739.9688     -2694.8556     -411.23559    
       300   296.42106      306.48512     -49023.881     -48717.396     -48684.479      81788.134      43.401976      644.81859      766.05728      504.00748      664.391        26.479072    
       400   295.05428      305.07193     -49019.475     -48714.403     -48649.231      81819.212      43.421593      1276.1807     -1057.3749      2335.8183      2550.0987      919.32466    
       500   300.90463      311.12091     -49019.326     -48708.205     -48739.022      81822.713      43.400279     -603.43516      1099.2275     -1542.8436     -1366.6894     -553.10588    
Loop time of 1.93457 on 8 procs for 500 steps with 8000 atoms

Performance: 22.331 ns/day, 1.075 hours/ns, 258.455 timesteps/s
99.6% CPU use with 8 MPI tasks x no OpenMP threads

MPI task timing breakdown:
Section |  min time  |  avg time  |  max time  |%varavg| %total
---------------------------------------------------------------
Pair    | 1.8116     | 1.844      | 1.8686     |   1.2 | 95.32
Neigh   | 0          | 0          | 0          |   0.0 |  0.00
Comm    | 0.032688   | 0.057223   | 0.089695   |   6.6 |  2.96
Output  | 0.00017183 | 0.00017584 | 0.00018773 |   0.0 |  0.01
Modify  | 0.029856   | 0.029972   | 0.030131   |   0.1 |  1.55
Other   |            | 0.00315    |            |       |  0.16

Nlocal:           1000 ave        1011 max         988 min
Histogram: 1 0 1 1 0 1 3 0 0 1
Nghost:           2060 ave        2072 max        2049 min
Histogram: 1 0 0 3 1 0 1 1 0 1
Neighs:              0 ave           0 max           0 min
Histogram: 8 0 0 0 0 0 0 0 0 0
FullNghs:        46000 ave       46506 max       45448 min
Histogram: 1 0 1 1 0 1 3 0 0 1

Total # of neighbors = 368000
Ave neighs/atom = 46
Neighbor list builds = 0
Dangerous builds = 0
System init for write_restart ...
Setting up Verlet run ...
  Unit style    : metal
  Current step  : 500
  Time step     : 0.001
Per MPI rank memory allocation (min/avg/max) = 3.139 | 3.15 | 3.159 Mbytes
   Step          Temp          KinEng         PotEng         TotEng        Enthalpy        Volume           Lx           Press           Pxx            Pyy            Pzz            Pyz      
       500   300.90463      311.12091     -49019.326     -48708.205     -48739.022      81822.713      43.400279     -603.43516      1099.2275     -1542.8436     -1366.6894     -553.10588    
       600   299.22264      309.38182     -49018.247     -48708.865     -48645.133      81815.225      43.424444      1248.0613      513.85088      1854.4416      1375.8914      251.70142    
       700   297.80978      307.92099     -49020.604     -48712.683     -48814.804      81847.749      43.403562     -1999.034      -204.61122     -2098.5588     -3693.9321      712.96905    
       800   297.43888      307.53749     -49024.977     -48717.44      -48652.804      81784.309      43.424706      1266.2227      622.19315      1253.1126      1923.3622     -107.32584    
       900   296.47941      306.54545     -49021.149     -48714.604     -48586.021      81770.882      43.385167      2519.3815      4164.8054      2784.6394      608.69972     -1451.5837    
      1000   300.55468      310.75908     -49018.751     -48707.992     -48687.353      81810.499      43.426989      404.18062     -2083.7851      1294.477       2001.8499     -442.21947    
      1100   301.57486      311.8139      -49019.206     -48707.392     -48808.776      81837.935      43.406495     -1984.8465     -1369.6415     -2007.1453     -2577.7525     -1270.0327    
      1200   300.88503      311.10065     -49019.965     -48708.864     -48758.792      81838.274      43.426733     -977.44797     -2806.9616     -730.92178      605.5395      -917.75745    
      1300   300.78405      310.99624     -49022.873     -48711.877     -48812.471      81817.857      43.401232     -1969.855      -969.62955     -2369.8838     -2570.0515      449.21178    
      1400   295.89844      305.94476     -49022.153     -48716.209     -48665.998      81762.506      43.418005      983.90405     -469.10306      446.41939      2974.3958      1062.2309    
      1500   296.67078      306.74332     -49022.769     -48716.026     -48717.221      81790.484      43.391576     -23.417786      330.36642      856.71282     -1257.3326     -298.04299    
      1600   300.28509      310.48034     -49018.737     -48708.257     -48796.713      81847.159      43.433052     -1731.5433     -2134.2329     -3200.2722      139.87527     -642.41512    
      1700   299.7199       309.89596     -49015.259     -48705.363     -48708.118      81835.114      43.398459     -53.948711      707.37968      551.42117     -1420.647      -94.081616    
      1800   303.15915      313.45198     -49021.039     -48707.587     -48719.022      81796.551      43.423904     -223.97162     -1571.7507     -1073.5801      1973.416       576.77516    
      1900   296.95736      307.03962     -49019.079     -48712.039     -48700.741      81798.789      43.394038      221.28529      1272.3425      950.11212     -1558.5987      421.48439    
      2000   295.75412      305.79554     -49021.32      -48715.525     -48712.263      81814.542      43.420442      63.862752     -180.48421     -1452.6386      1824.711      -422.42437    
      2100   297.1309       307.21906     -49019.276     -48712.057     -48652.634      81809.054      43.4046        1163.758       803.21496      2616.6133      71.445778     -1305.1245    
      2200   302.45891      312.72797     -49017.617     -48704.889     -48670.392      81810.468      43.417053      675.60211      476.16359     -973.71636      2524.3591     -222.2518     
      2300   300.44401      310.64465     -49015.277     -48704.632     -48662.504      81816.534      43.414199      824.97352      1013.0103      3447.9458     -1986.0355     -185.01652    
      2400   299.46773      309.63522     -49018.981     -48709.345     -48658.321      81814.567      43.409244      999.21649      1476.317      -1601.6713      3123.0037     -158.70632    
      2500   299.733        309.90951     -49023.067     -48713.158     -48747.069      81807.126      43.413383     -664.14778     -1158.275       495.3714      -1329.5397     -291.08995    
Loop time of 7.72885 on 8 procs for 2000 steps with 8000 atoms

Performance: 22.358 ns/day, 1.073 hours/ns, 258.771 timesteps/s
99.6% CPU use with 8 MPI tasks x no OpenMP threads

MPI task timing breakdown:
Section |  min time  |  avg time  |  max time  |%varavg| %total
---------------------------------------------------------------
Pair    | 7.2794     | 7.3786     | 7.4527     |   1.9 | 95.47
Neigh   | 0          | 0          | 0          |   0.0 |  0.00
Comm    | 0.14311    | 0.21663    | 0.31573    |  11.1 |  2.80
Output  | 0.00071061 | 0.00072782 | 0.00074847 |   0.0 |  0.01
Modify  | 0.11965    | 0.12024    | 0.12071    |   0.1 |  1.56
Other   |            | 0.01268    |            |       |  0.16

Nlocal:           1000 ave        1007 max         986 min
Histogram: 1 0 1 0 0 0 1 2 0 3
Nghost:           2060 ave        2074 max        2053 min
Histogram: 3 0 2 1 0 0 0 1 0 1
Neighs:              0 ave           0 max           0 min
Histogram: 8 0 0 0 0 0 0 0 0 0
FullNghs:        46000 ave       46322 max       45356 min
Histogram: 1 0 1 0 0 0 1 2 0 3

Total # of neighbors = 368000
Ave neighs/atom = 46
Neighbor list builds = 0
Dangerous builds = 0
System init for write_restart ...
Setting up Verlet run ...
  Unit style    : metal
  Current step  : 0
  Time step     : 0.001
Per MPI rank memory allocation (min/avg/max) = 3.139 | 3.15 | 3.159 Mbytes
   Step          Temp          KinEng         PotEng         TotEng        Enthalpy        Volume           Lx           Press           Pxx            Pyy            Pzz            Pyz      
         0   299.733        309.90951     -49023.067     -48713.158     -48747.069      81807.126      43.413383     -664.14778     -1158.275       495.3714      -1329.5397     -291.08995    
       100   297.72036      307.82853     -49018.563     -48710.734     -48658.606      81806.888      43.407569      1020.9178      1824.1783     -231.44633      1470.0214     -185.49569    
       200   303.30563      313.60343     -49018.058     -48704.454     -48764.06       81817.41       43.417066     -1167.2094     -778.66027     -1887.9788     -834.98899      919.0273     
       300   303.82893      314.1445      -49016.851     -48702.707     -48643.506      81813.187      43.409269      1159.3473      2225.3054      482.39083      770.34573      477.61603    
       400   301.31365      311.54382     -49016.912     -48705.368     -48709.242      81825.558      43.414677     -75.846296     -522.22702      1018.5213     -723.83314      722.92951    
       500   302.90205      313.18615     -49021.323     -48708.137     -48705.125      81796.865      43.409448      59.002225      397.78822     -11.944856     -208.83669     -859.65102    
       600   300.58646      310.79194     -49021.569     -48710.777     -48701.463      81797.461      43.407961      182.43281     -386.59327      395.06201      538.82969     -303.49563    
       700   299.29369      309.45527     -49021.859     -48712.404     -48881.995      81855.456      43.421962     -3319.4476     -3010.3167     -3611.5353     -3336.4909      103.6993     
       800   300.28266      310.47783     -49021.305     -48710.827     -48623.971      81799.788      43.407465      1701.2152      2194.0027      1523.9655      1385.6773     -665.2231     
       900   302.54188      312.81376     -49017.942     -48705.128     -48659.761      81782.01       43.418876      888.77065     -200.00586      1979.309       887.0088      -1283.5548    
      1000   305.118        315.47733     -49018.745     -48703.267     -48672.38       81794.837      43.401116      605.01098      1559.224       891.52672     -635.71777     -200.15536    
      1100   297.86026      307.97318     -49016.12      -48708.147     -48714.922      81832.725      43.422929     -132.65254      288.74625      1881.5035     -2568.2073     -1578.6036    
      1200   298.84612      308.99252     -49021.48      -48712.488     -48785.673      81824.248      43.40222      -1433.0267     -487.74828     -3269.1826     -542.14928     -431.4461     
      1300   299.98575      310.17084     -49022.274     -48712.103     -48754.641      81771.022      43.419838     -833.4509      -2285.7022      367.17195     -581.8225      -104.72242    
      1400   301.81202      312.05911     -49021.706     -48709.647     -48714.974      81766.145      43.389356     -104.37652      266.47176     -126.91404     -452.68729     -997.70467    
      1500   302.29753      312.56111     -49020.662     -48708.1       -48732.344      81819.264      43.431694     -474.72623     -1183.5521      67.514984     -308.14154      229.09405    
      1600   298.01141      308.12947     -49015.796     -48707.666     -48683.787      81809.214      43.399239      467.65884      1589.7995     -198.36403      11.541003      2649.647     
      1700   299.0118       309.16382     -49017.448     -48708.284     -48808.275      81832.183      43.425219     -1957.7141     -2079.0613     -2160.962      -1633.1191     -262.68711    
      1800   299.33949      309.50264     -49018.89      -48709.387     -48680.436      81810.704      43.408006      566.9715       2075.2212     -89.68574      -284.62095     -735.54215    
      1900   302.45666      312.72564     -49021.823     -48709.097     -48732.883      81807.193      43.41164      -465.83668     -1536.4168      906.48211     -767.5754       118.89731    
      2000   300.7466       310.95752     -49020.161     -48709.204     -48699.455      81793.93       43.400214      190.96101     -234.51758     -80.650835      888.05143     -1569.4784    
      2100   297.50168      307.60243     -49016.24      -48708.638     -48669.172      81822.454      43.427714      772.79085     -35.913971      1474.5437      879.74282     -934.51127    
      2200   300.25485      310.44907     -49018.911     -48708.462     -48689.085      81810.708      43.397308      379.47426      2056.5459     -785.90136     -132.22178      38.678294    
      2300   298.82033      308.96585     -49017.754     -48708.788     -48597.981      81776.209      43.416989      2170.955       2.1773328      3430.9938      3079.6939     -1179.9953    
      2400   300.16794      310.35921     -49020.503     -48710.144     -48705.79       81796.701      43.402362      85.29474       646.24427     -893.88804      503.52799     -83.03913     
      2500   296.84428      306.92271     -49019.176     -48712.254     -48675.818      81816.226      43.419263      713.51077      166.68009      1439.5304      534.32179     -586.07982    
      2600   299.66302      309.83715     -49022.238     -48712.401     -48685.855      81796.943      43.398694      519.95663      1695.7036     -658.45622      522.62251      712.53702    
      2700   301.14647      311.37097     -49019.779     -48708.408     -48766.41       81814.768      43.422881     -1135.8476     -2119.4931     -109.5865      -1178.4631      1533.8108    
      2800   301.72362      311.96771     -49015.403     -48703.436     -48787.501      81850.209      43.408258     -1645.538      -518.56638     -1975.7881     -2442.2595     -686.18197    
      2900   301.41756      311.65126     -49016.636     -48704.985     -48597.189      81795.436      43.411821      2111.4515      1323.0815      3935.0651      1076.2079      110.10838    
      3000   296.6167       306.6874      -49017.912     -48711.225     -48594.378      81770.008      43.402936      2289.4689      2488.9343      2057.5842      2321.888      -610.29546    
      3100   298.40082      308.5321      -49021.886     -48713.354     -48614.26       81793.671      43.406487      1941.0659      2895.4631      3077.9054     -150.17066     -609.93937    
      3200   298.43677      308.56927     -49019.531     -48710.961     -48753.799      81840.038      43.418368     -838.63225     -333.08982     -1479.924      -702.88293     -1347.4592    
      3300   303.45406      313.7569      -49021.19      -48707.433     -48817.224      81807.07       43.413939     -2150.2483     -3233.4072     -1378.5737     -1838.7641     -1133.3503    
      3400   303.13917      313.43132     -49018.172     -48704.741     -48594.64       81759.774      43.395688      2157.5515      2229.3983      1921.9757      2321.2804     -1930.7566    
      3500   303.11084      313.40203     -49019.883     -48706.481     -48662.48       81781.37       43.414916      862.01268     -529.12053      2066.0248      1049.1338     -828.30594    
      3600   295.34702      305.37462     -49019.459     -48714.085     -48799.354      81848.365      43.410779     -1669.1425     -1659.9428     -1961.0292     -1386.4554     -485.31713    
      3700   297.14182      307.23035     -49021.655     -48714.424     -48782.668      81833.901      43.422951     -1336.0972     -1996.686      -443.02806     -1568.5774     -266.91627    
      3800   296.30029      306.36025     -49015.966     -48709.606     -48589.531      81801.038      43.404443      2351.8112      3010.2458      254.39064      3790.7971     -163.14791    
      3900   300.69294      310.90204     -49016.665     -48705.763     -48571.028      81765.898      43.405858      2640.0937      1940.4686      3328.6398      2651.1727      378.63076    
      4000   301.81884      312.06616     -49018.616     -48706.55      -48684.757      81802.264      43.39831       426.82788      2531.6704     -1187.8917     -63.295108      543.53434    
      4100   301.10331      311.32634     -49019.756     -48708.429     -48811.216      81864.185      43.426077     -2011.6555     -2484.7208     -940.65338     -2609.5923      1345.4117    
      4200   299.60017      309.77216     -49019.509     -48709.737     -48778.607      81833.78       43.403063     -1348.3553     -247.01765     -1960.0015     -1838.0469     -554.17056    
      4300   297.68428      307.79122     -49017.733     -48709.942     -48620.612      81782.34       43.422783      1750.0288     -26.111097      3101.8396      2174.358      -1448.9408    
[...]
Histogram: 1 1 1 0 0 1 1 1 1 1

Total # of neighbors = 368000
Ave neighs/atom = 46
Neighbor list builds = 0
Dangerous builds = 0

write_restart   restart_${T0}Kxy${P2}bar.rmp
write_restart   restart_300Kxy${P2}bar.rmp
write_restart   restart_300Kxy10000bar.rmp
System init for write_restart ...

unfix           ramp
unfix           rmp_out

#
# settle at P2
#

fix relax       all npt temp ${T0} ${T0} 0.1 x 0 0 1  y 0. 0. 1  z 0. 0. 1 xy ${P2} ${P2} 1
fix relax       all npt temp 300 ${T0} 0.1 x 0 0 1  y 0. 0. 1  z 0. 0. 1 xy ${P2} ${P2} 1
fix relax       all npt temp 300 300 0.1 x 0 0 1  y 0. 0. 1  z 0. 0. 1 xy ${P2} ${P2} 1
fix relax       all npt temp 300 300 0.1 x 0 0 1  y 0. 0. 1  z 0. 0. 1 xy 10000 ${P2} 1
fix relax       all npt temp 300 300 0.1 x 0 0 1  y 0. 0. 1  z 0. 0. 1 xy 10000 10000 1
fix rlx_out     all print 10 "${vstep} ${vtemp} ${vke} ${vpe} ${vte} ${venth} ${vvol} ${vlx} ${vly} ${vlz} ${vxy} ${vxz} ${vyz} ${vpress} ${vpxx} ${vpyy} ${vpzz} ${vpxy}"                 file npt${T0}Kxy${P2}bar.rlx  screen no
fix rlx_out     all print 10 "${vstep} ${vtemp} ${vke} ${vpe} ${vte} ${venth} ${vvol} ${vlx} ${vly} ${vlz} ${vxy} ${vxz} ${vyz} ${vpress} ${vpxx} ${vpyy} ${vpzz} ${vpxy}"                 file npt300Kxy${P2}bar.rlx  screen no
fix rlx_out     all print 10 "${vstep} ${vtemp} ${vke} ${vpe} ${vte} ${venth} ${vvol} ${vlx} ${vly} ${vlz} ${vxy} ${vxz} ${vyz} ${vpress} ${vpxx} ${vpyy} ${vpzz} ${vpxy}"                 file npt300Kxy10000bar.rlx  screen no

run             ${step_relax}
run             2000
Per MPI rank memory allocation (min/avg/max) = 3.139 | 3.151 | 3.159 Mbytes
   Step          Temp          KinEng         PotEng         TotEng        Enthalpy        Volume           Lx           Press           Pxx            Pyy            Pzz            Pyz      
       500   297.52224      307.62369     -49014.978     -48707.354     -48662.201      81814.853      43.409628      884.2208       779.38654      2800.5748     -927.29893     -847.78903    
       600   301.61325      311.85359     -49019.76      -48707.907     -48753.185      81832.913      43.415479     -886.48851     -692.75394     -2995.1732      1028.4617     -1370.3917    
       700   297.25383      307.34616     -49018.84      -48711.494     -48734.123      81808.285      43.412086     -443.17423      437.20925      873.4355      -2640.1674      256.48372    
       800   297.59526      307.69919     -49024.114     -48716.415     -48732.536      81776.986      43.396834     -315.84199      1218.4955     -2587.0081      420.98669      348.06809    
       900   297.2027       307.2933      -49021.108     -48713.815     -48726.958      81785.862      43.415464     -257.48034     -1163.933       1328.0114     -936.51943     -296.09985    
      1000   301.55233      311.7906      -49019.136     -48707.346     -48740.767      81812.786      43.399974     -654.49959      554.78506     -2858.9473      340.66346      276.45061    
      1100   303.42252      313.7243      -49019.628     -48705.904     -48823.378      81851.167      43.428051     -2299.4734     -3373.4435     -335.69278     -3189.2838     -44.711819    
      1200   300.75527      310.96649     -49018.896     -48707.929     -48772.207      81815.83       43.398711     -1258.7306      994.98392     -3976.0671     -795.10869      379.33911    
      1300   299.21742      309.37642     -49020.179     -48710.802     -48631.442      81774.924      43.414402      1554.8716     -473.49609      3810.0694      1328.0415      108.44252    
      1400   296.15118      306.20607     -49022.046     -48715.84      -48728.062      81776.166      43.389412     -239.45728      696.26372     -2906.977       1492.3415     -795.72835    
      1500   295.37568      305.40425     -49020.62      -48715.216     -48724.665      81830.771      43.43149      -185.01445     -477.9882       975.8463      -1052.9014     -1267.7994    
      1600   300.43094      310.63114     -49017.152     -48706.521     -48836.757      81869.241      43.4013       -2548.7127     -1396.6601     -4341.2298     -1908.2483     -1028.9863    
      1700   301.61819      311.8587      -49017.05      -48705.191     -48747.413      81830.717      43.43124      -826.68076     -3945.5617      1556.6127     -91.093298     -405.40336    
      1800   300.18465      310.37649     -49017.475     -48707.098     -48602.366      81786.115      43.391014      2051.6774      3513.2472     -512.5999       3154.3849     -1169.4099    
      1900   302.01455      312.26852     -49024.619     -48712.35      -48686.335      81773.388      43.420022      509.71001     -736.88749      3620.6729     -1354.6553     -1353.2605    
      2000   298.46684      308.60036     -49022.592     -48713.992     -48724.906      81826.534      43.403602     -213.70047      1277.388      -3815.7586      1897.2692      264.94584    
      2100   300.48483      310.68687     -49017.775     -48707.088     -48732.559      81846.848      43.43605      -498.60804     -1547.2641      2761.886      -2710.4461     -624.04268    
      2200   303.62498      313.93363     -49016.518     -48702.585     -48728.912      81823.892      43.403212     -515.50043     -167.21282     -3526.6688      2147.3803     -161.64362    
      2300   299.00038      309.15201     -49014.319     -48705.167     -48613.121      81774.097      43.414273      1803.4268      2180.5219      4265.6166     -1035.8582      109.28802    
      2400   301.37185      311.60399     -49022.085     -48710.481     -48685.883      81803.464      43.403583      481.75746      1109.3097     -1743.1063      2079.069      -197.67928    
      2500   299.0597       309.21335     -49020.816     -48711.603     -48871.52       81890.32       43.438429     -3128.754      -5027.0953     -624.64193     -3734.5248     -1066.8215    
Loop time of 7.76731 on 8 procs for 2000 steps with 8000 atoms

Performance: 22.247 ns/day, 1.079 hours/ns, 257.489 timesteps/s
99.6% CPU use with 8 MPI tasks x no OpenMP threads

MPI task timing breakdown:
Section |  min time  |  avg time  |  max time  |%varavg| %total
---------------------------------------------------------------
Pair    | 7.2615     | 7.3866     | 7.5134     |   3.0 | 95.10
Neigh   | 0          | 0          | 0          |   0.0 |  0.00
Comm    | 0.12018    | 0.24623    | 0.37055    |  16.5 |  3.17
Output  | 0.00075126 | 0.00076522 | 0.00079691 |   0.0 |  0.01
Modify  | 0.12023    | 0.12077    | 0.12172    |   0.1 |  1.55
Other   |            | 0.01299    |            |       |  0.17

Nlocal:           1000 ave        1023 max         983 min
Histogram: 1 1 0 2 2 0 0 1 0 1
Nghost:           2060 ave        2077 max        2037 min
Histogram: 1 0 1 0 0 1 3 0 1 1
Neighs:              0 ave           0 max           0 min
Histogram: 8 0 0 0 0 0 0 0 0 0
FullNghs:        46000 ave       47058 max       45218 min
Histogram: 1 1 0 2 2 0 0 1 0 1

Total # of neighbors = 368000
Ave neighs/atom = 46
Neighbor list builds = 0
Dangerous builds = 0

write_restart   restart_${T0}Kxy${P2}bar.rlx
write_restart   restart_300Kxy${P2}bar.rlx
write_restart   restart_300Kxy10000bar.rlx
System init for write_restart ...

unfix           relax
unfix           rlx_out

#
# Run at P2 for equilibrium data
#

reset_timestep  0

fix equi        all npt temp ${T0} ${T0} 0.1 x 0 0 1 y 0. 0. 1  z 0. 0. 1 xy ${P2} ${P2} 1
fix equi        all npt temp 300 ${T0} 0.1 x 0 0 1 y 0. 0. 1  z 0. 0. 1 xy ${P2} ${P2} 1
fix equi        all npt temp 300 300 0.1 x 0 0 1 y 0. 0. 1  z 0. 0. 1 xy ${P2} ${P2} 1
fix equi        all npt temp 300 300 0.1 x 0 0 1 y 0. 0. 1  z 0. 0. 1 xy 10000 ${P2} 1
fix equi        all npt temp 300 300 0.1 x 0 0 1 y 0. 0. 1  z 0. 0. 1 xy 10000 10000 1
fix eq_out      all print 1 "${vstep} ${vtemp} ${vke} ${vpe} ${vte} ${venth} ${vvol} ${vlx} ${vly} ${vlz} ${vxy} ${vxz} ${vyz} ${vpress} ${vpxx} ${vpyy} ${vpzz} ${vpxy}"                 file npt${T0}Kxy${P2}bar.eql  screen no
fix eq_out      all print 1 "${vstep} ${vtemp} ${vke} ${vpe} ${vte} ${venth} ${vvol} ${vlx} ${vly} ${vlz} ${vxy} ${vxz} ${vyz} ${vpress} ${vpxx} ${vpyy} ${vpzz} ${vpxy}"                 file npt300Kxy${P2}bar.eql  screen no
fix eq_out      all print 1 "${vstep} ${vtemp} ${vke} ${vpe} ${vte} ${venth} ${vvol} ${vlx} ${vly} ${vlz} ${vxy} ${vxz} ${vyz} ${vpress} ${vpxx} ${vpyy} ${vpzz} ${vpxy}"                 file npt300Kxy10000bar.eql  screen no

run             ${step_equi}
run             5000
Per MPI rank memory allocation (min/avg/max) = 3.139 | 3.151 | 3.159 Mbytes
   Step          Temp          KinEng         PotEng         TotEng        Enthalpy        Volume           Lx           Press           Pxx            Pyy            Pzz            Pyz      
         0   299.0597       309.21335     -49020.816     -48711.603     -48871.52       81890.32       43.438429     -3128.754      -5027.0953     -624.64193     -3734.5248     -1066.8215    
       100   297.23741      307.32918     -49017.449     -48710.12      -48721.645      81812.352      43.401433     -225.70683      366.04067     -1997.4903      954.32919     -83.44848     
       200   306.79197      317.20814     -49020.392     -48703.184     -48612.193      81769.248      43.418984      1782.8635      1322.122       4340.2568     -313.78822     -1387.2225    
       300   299.03583      309.18867     -49010.404     -48701.215     -48698.862      81827.28       43.399966      46.081435      1121.7064     -1870.8451      887.38302     -684.3825     
       400   304.45603      314.79289     -49019.179     -48704.386     -48836.7        81880.167      43.439572     -2589.0293     -3706.6626     -1075.0681     -2985.3571     -353.99355    
       500   301.18344      311.40918     -49018.289     -48706.879     -48785.984      81840.668      43.39979      -1548.6185     -649.73063     -3190.7284     -805.39647     -1188.0813    
       600   301.66983      311.91209     -49021.175     -48709.262     -48741.737      81797.293      43.427337     -636.09346     -2101.303       1051.6348     -858.61217     -1096.7517    
       700   297.84193      307.95423     -49018.987     -48711.033     -48777.818      81780.339      43.392319     -1308.4108      626.75256     -2837.8625     -1714.1224     -1031.6605    
       800   300.29367      310.48921     -49022.512     -48712.022     -48724.495      81816.533      43.433861     -244.24372     -3394.6138      2806.4599     -144.57725      155.88217    
       900   299.03638      309.18924     -49017.226     -48708.036     -48607.807      81812.927      43.382573      1962.8286      4569.5511     -330.21801      1649.1529      219.93754    
      1000   303.52705      313.83237     -49017.593     -48703.76      -48690.965      81814.133      43.433536      250.56192     -700.09029      805.1788       646.59726     -252.69718    
      1100   301.26525      311.49378     -49014.996     -48703.502     -48711.091      81825.976      43.394481     -148.59665      2461.9054     -2751.5469     -156.14853     -610.37931    
      1200   295.59525      305.63127     -49016.103     -48710.472     -48647.957      81812.967      43.435222      1224.2529      494.55111      1879.2256      1298.982      -827.01683    
      1300   296.18862      306.24479     -49018.745     -48712.5       -48755.182      81809.758      43.38365      -835.88289      2011.0715     -2274.163      -2244.5572     -1377.9854    
      1400   297.77441      307.88442     -49018.55      -48710.666     -48620.565      81766.835      43.429297      1765.4711     -1414.7839      2281.2304      4429.9667      2048.5161    
      1500   301.27726      311.5062      -49019.355     -48707.848     -48608.17       81772.751      43.388462      1953.0007      3537.0797      1075.7412      1246.1813     -691.28473    
      1600   300.02855      310.21509     -49016.075     -48705.859     -48805.815      81842.486      43.435015     -1956.77       -3841.806      -1666.7086     -361.79533     -643.87608    
      1700   301.88729      312.13694     -49018.781     -48706.644     -48790.528      81841.674      43.397811     -1642.1511     -670.70283     -1611.7613     -2643.9892      909.29442    
      1800   298.29348      308.42111     -49022.451     -48714.03      -48733.055      81792.177      43.433808     -372.67434     -2501.1675      253.16942      1129.9751     -1042.53      
      1900   301.00699      311.22675     -49027.548     -48716.321     -48780.787      81791.799      43.38116      -1262.7821      1734.2272     -269.01294     -5253.5604     -1057.1892    
      2000   297.62702      307.73202     -49017.744     -48710.012     -48726.326      81800.246      43.437855     -319.53144     -3569.816      -424.77904      3036.0007     -428.93102    
      2100   301.23146      311.45884     -49017.813     -48706.354     -48807.099      81849.328      43.386823     -1972.0446      856.2131      -391.45149     -6380.8955     -96.885063    
      2200   302.11175      312.36902     -49018.03      -48705.661     -48876.463      81854.899      43.457651     -3343.1727     -6578.4232     -3441.3966     -9.6983264     -1691.377     
      2300   297.95861      308.07488     -49016.02      -48707.945     -48675.92       81796.345      43.378836      627.29575      2988.3503      285.36032     -1391.8234     -470.49107    
      2400   295.25174      305.2761      -49021.014     -48715.738     -48575.426      81751.304      43.428149      2749.8579      1469.3005      446.81962      6333.4536     -969.16437    
      2500   295.64882      305.68666     -49020.436     -48714.75      -48737.863      81829.503      43.388279     -452.54492      2121.8295     -917.21978     -2562.2445     -1544.2309    
      2600   295.90605      305.95262     -49018.28      -48712.327     -48787.053      81834.061      43.434816     -1463.0001     -3351.8536     -2031.5108      994.36409      45.716458    
      2700   297.64343      307.74899     -49016.744     -48708.995     -48720.051      81817.523      43.401006     -216.49117      979.91406     -267.24874     -1362.1388      589.50226    
      2800   301.72246      311.96651     -49019.197     -48707.23      -48640.26       81790.036      43.418281      1311.8694      1490.4102      791.26581      1653.9322     -999.10428    
      2900   303.33974      313.6387      -49018.54      -48704.901     -48643.4        81805.345      43.40992       1204.5201      1907.996       1750.3543     -44.790037      47.377128    
      3000   301.01301      311.23298     -49017.159     -48705.926     -48647.75       81816.038      43.415636      1139.2355      413.68455      455.93479      2548.0871      896.24449    
      3100   300.79349      311.00601     -49022.53      -48711.524     -48711.805      81802.626      43.414155     -5.502566       42.709174     -280.49481      221.27794      507.44128    
      3200   297.04532      307.13057     -49021.35      -48714.219     -48741.532      81833.695      43.413714     -534.74699     -23.607897     -841.9312      -738.70186     -113.71024    
      3300   303.14166      313.43389     -49024.292     -48710.858     -48743.293      81790.034      43.411654     -635.3651      -1708.1439     -29.176724     -168.77472     -1337.3302    
      3400   300.09586      310.28469     -49015.133     -48704.848     -48739.874      81822.409      43.410262     -685.83934      315.36067      361.7082      -2734.5869      536.60483    
      3500   300.57161      310.77659     -49015.502     -48704.726     -48711.361      81860.188      43.419283     -129.87489     -21.356171     -306.14937     -62.119135     -1587.0798    
      3600   296.58063      306.65011     -49013.991     -48707.341     -48680.701      81836.726      43.405985      521.55037      1388.0721      227.13497     -50.555923      155.32904    
      3700   301.78549      312.03168     -49022.015     -48709.984     -48627.377      81788.53       43.410866      1618.2129      1047.4622      1206.1644      2601.0121     -1568.2635    
      3800   299.8146       309.99387     -49021.929     -48711.935     -48732.565      81794.912      43.408019     -404.08725     -46.730173     -1193.2974      27.765781     -291.25034    
      3900   298.86821      309.01535     -49020.657     -48711.642     -48800.659      81847.464      43.419139     -1742.5208     -958.33997     -1119.9033     -3149.319      -597.85569    
      4000   301.91092      312.16137     -49019.209     -48707.048     -48781.211      81848.225      43.424745     -1451.7417     -2534.0887     -1581.029      -240.10744      689.12423    
      4100   302.40521      312.67244     -49016.312     -48703.639     -48740.498      81809.738      43.398375     -721.8553      -96.647966     -1454.1756     -614.74236      802.1779     
      4200   301.00483      311.22452     -49015.731     -48704.507     -48649.535      81782.794      43.426934      1076.9337     -560.41532      2289.3969      1501.8194      332.40947    
      4300   301.16071      311.38569     -49022.33      -48710.945     -48764.921      81847.418      43.408222     -1056.5925     -76.542272     -1700.801      -1392.4343      1900.7795    
      4400   294.85051      304.86124     -49017.652     -48712.791     -48888.291      81884.58       43.438245     -3433.8873     -4308.6134     -3063.3821     -2929.6663     -345.32562    
      4500   300.40183      310.60104     -49021.451     -48710.85      -48739.875      81810.612      43.4017       -568.41448      122.86526     -1877.6242      49.515463      885.63898    
      4600   297.6573       307.76333     -49015.872     -48708.108     -48561.962      81753.029      43.421641      2864.1504      743.48901      4494.0365      3354.9257     -1393.4707    
      4700   299.12756      309.28351     -49016.727     -48707.443     -48605.917      81797.565      43.387854      1988.593       3557.4603      1034.068       1374.2507     -1546.4489    
      4800   301.84306      312.09121     -49019.748     -48707.657     -48682.262      81811.437      43.428987      497.33898     -1515.3898      2234.6211      772.78564     -124.04462    
      4900   298.19945      308.32389     -49016.612     -48708.288     -48756.505      81837.838      43.404146     -943.97757     -414.98319     -1816.6726     -600.27695     -810.22841    
      5000   298.14951      308.27225     -49017.107     -48708.834     -48671.471      81789.251      43.414901      731.91533      241.15826      1565.7428      388.84491     -778.21631    
Loop time of 20.4196 on 8 procs for 5000 steps with 8000 atoms

Performance: 21.156 ns/day, 1.134 hours/ns, 244.863 timesteps/s
99.6% CPU use with 8 MPI tasks x no OpenMP threads

MPI task timing breakdown:
Section |  min time  |  avg time  |  max time  |%varavg| %total
---------------------------------------------------------------
Pair    | 18.834     | 19.081     | 19.444     |   5.1 | 93.45
Neigh   | 0          | 0          | 0          |   0.0 |  0.00
Comm    | 0.31032    | 0.67238    | 0.92075    |  26.9 |  3.29
Output  | 0.0015835  | 0.0016814  | 0.0021723  |   0.5 |  0.01
Modify  | 0.63014    | 0.63078    | 0.63191    |   0.1 |  3.09
Other   |            | 0.03332    |            |       |  0.16

Nlocal:           1000 ave        1017 max         983 min
Histogram: 1 1 1 0 2 0 1 0 0 2
Nghost:           2060 ave        2077 max        2043 min
Histogram: 2 0 0 1 0 2 0 1 1 1
Neighs:              0 ave           0 max           0 min
Histogram: 8 0 0 0 0 0 0 0 0 0
FullNghs:        46000 ave       46782 max       45218 min
Histogram: 1 1 1 0 2 0 1 0 0 2

Total # of neighbors = 368000
Ave neighs/atom = 46
Neighbor list builds = 0
Dangerous builds = 0

write_restart   restart_${T0}Kxy${P2}bar.eql
write_restart   restart_300Kxy${P2}bar.eql
write_restart   restart_300Kxy10000bar.eql
System init for write_restart ...

unfix           equi
unfix           eq_out


next i

jump SELF shear_loop




print "Job Complete"
Job Complete
Total wall time: 0:05:28
