LAMMPS (29 Aug 2024 - Update 1)
OMP_NUM_THREADS environment is not set. Defaulting to 1 thread. (src/comm.cpp:98)
  using 1 OpenMP thread(s) per MPI task
units            metal
boundary         p p p
atom_style       atomic
dimension 3

region box block 0 25 0 25 0 25
create_box 1 box
Created orthogonal box = (0 0 0) to (25 25 25)
  1 by 1 by 1 MPI processor grid

lattice fcc 3.48
Lattice spacing in x,y,z = 3.48 3.48 3.48
create_atoms 1 box
Created 1688 atoms
  using lattice units in orthogonal box = (0 0 0) to (25 25 25)
  create_atoms CPU = 0.000 seconds

mass 1 58.6934

pair_style eam
pair_coeff * * Ni_u3.eam
neighbor 1.5 bin
neigh_modify every 1 delay 1

timestep 0.005

thermo 25
thermo_style custom step temp press etotal vol

variable step equal step
variable temp equal temp
variable press equal press
variable etotal equal etotal
variable vol equal vol

fix samp_out all print 10 "${step} ${temp} ${press} ${etotal} ${vol}"                  file thermo_output.txt screen no

dump 100 all atom 100 ni_rdf.dump

fix 0 all nvt temp 1 5000 0.01

compute myRDF all rdf 200

fix 1 all ave/time 100 10 1000 c_myRDF[*] file ni.rdf mode vector

run 10000
Neighbor list info ...
  update: every = 1 steps, delay = 1 steps, check = yes
  max neighbors/atom: 2000, page size: 100000
  master list distance cutoff = 6.3
  ghost atom cutoff = 6.3
  binsize = 3.15, bins = 8 8 8
  2 neighbor lists, perpetual/occasional/extra = 1 1 0
  (1) pair eam, perpetual
      attributes: half, newton on
      pair build: half/bin/atomonly/newton
      stencil: half/bin/3d
      bin: standard
  (2) compute rdf, occasional, copy from (1)
      attributes: half, newton on
      pair build: copy
      stencil: none
      bin: none
WARNING: A per-atom density exceeded rhomax of EAM potential table - a linear extrapolation to the energy was made (src/MANYBODY/pair_eam.cpp:334)
Per MPI rank memory allocation (min/avg/max) = 3.495 | 3.495 | 3.495 Mbytes
   Step          Temp          Press          TotEng         Volume    
         0   0              2567803.6      34631.486      15625        
        25   0              719831.75     -6066.1104      15625        
        50   0              673961.05     -6285.1551      15625        
        75   9.7557565e-234  649412.11     -6394.9827      15625        
       100   4.8578278e-153  634109.31     -6463.8498      15625        
       125   1.5088917e-101  623258.66     -6512.1682      15625        
       150   1.3028075e-67  614820.9      -6548.3853      15625        
       175   6.3407688e-45  608246.05     -6576.7394      15625        
       200   1.1819875e-29  602976.23     -6599.472       15625        
       225   2.4966476e-19  598653.45     -6617.9647      15625        
       250   2.6251451e-12  595064        -6633.1929      15625        
       275   1.8185629e-07  592136.23     -6645.7833      15625        
       300   0.00053459538  589684.06     -6656.2374      15625        
       325   0.44782697     587520.63     -6665.3493      15625        
       350   23.291939      580614.73     -6694.6401      15625        
       375   397.30436      589673.78     -6599.7282      15625        
       400   261.80041      597346.75     -6589.1203      15625        
       425   199.36653      586307.36     -6643.0789      15625        
       450   182.0869       595989.68     -6611.8719      15625        
       475   232.6311       593434.18     -6612.8737      15625        
       500   233.38932      589694.09     -6629.6303      15625        
       525   278.72299      607502.25     -6557.0184      15625        
       550   268.22889      590403        -6612.5046      15625        
       575   269.85925      582291.32     -6635.0112      15625        
       600   262.54818      552483.29     -6702.5716      15625        
       625   335.49647      542218.45     -6708.4061      15625        
       650   323.79706      530202.66     -6743.3633      15625        
       675   344.58827      525487.63     -6753.674       15625        
       700   337.47892      514547.97     -6789.0461      15625        
       725   376.65468      512458.3      -6786.1023      15625        
       750   368.26146      508733.18     -6802.2594      15625        
       775   395.0868       504573.13     -6813.356       15625        
       800   397.76289      499619.35     -6829.7965      15625        
       825   407.71137      495521.51     -6845.6019      15625        
       850   416.38993      493137.7      -6854.7585      15625        
       875   433.48295      494153.36     -6846.2338      15625        
       900   447.62789      494735.21     -6839.2653      15625        
       925   454.28182      491051.65     -6852.9142      15625        
       950   458.70226      490295.61     -6854.6902      15625        
       975   488.26559      487786.33     -6857.8266      15625        
      1000   515.97099      488634.93     -6850.7879      15625        
      1025   504.8699       485515.64     -6864.0236      15625        
      1050   530.17319      486776.54     -6854.4964      15625        
      1075   540.95099      484809.96     -6860.0339      15625        
      1100   543.46583      483958.03     -6862.1576      15625        
      1125   565.48229      486522.55     -6848.9614      15625        
      1150   577.26174      487485.5      -6843.5172      15625        
      1175   595.38776      485555.52     -6846.5811      15625        
      1200   592.53237      486156.29     -6847.058       15625        
      1225   630.64448      487200.4      -6837.2035      15625        
      1250   626.66178      488248.51     -6835.3104      15625        
      1275   637.39431      488686.38     -6830.7383      15625        
      1300   664.63153      489317.15     -6825.4764      15625        
      1325   655.82064      490347.21     -6822.7269      15625        
      1350   675.65541      491033.48     -6817.0879      15625        
      1375   685.24799      492207        -6811.8517      15625        
      1400   713.88205      492671.63     -6804.4628      15625        
      1425   697.68454      493948.02     -6802.3804      15625        
      1450   727.94052      494166.72     -6797.1096      15625        
      1475   728.68132      493328.22     -6801.1019      15625        
      1500   744.69999      495700.97     -6789.2847      15625        
      1525   757.43737      496518.86     -6783.9463      15625        
      1550   780.54493      498469.84     -6773.399       15625        
      1575   800.52941      497879.63     -6772.3394      15625        
      1600   780.17439      499339.41     -6769.81        15625        
      1625   820.2365       501272.79     -6756.9554      15625        
      1650   799.02651      502058.85     -6757.6416      15625        
      1675   832.26911      503264.75     -6746.3104      15625        
      1700   871.22757      504764.65     -6734.0457      15625        
      1725   884.51779      505906.21     -6730.1594      15625        
      1750   853.82676      504764.43     -6738.6645      15625        
      1775   881.99955      505754.61     -6730.6775      15625        
      1800   887.37456      508119.84     -6720.5909      15625        
      1825   912.743        508630.01     -6714.5089      15625        
      1850   933.59376      507729.03     -6714.7564      15625        
      1875   917.60694      510806.44     -6705.5442      15625        
      1900   953.29837      510254.68     -6701.1459      15625        
      1925   964.71361      512269.7      -6691.4561      15625        
      1950   1008.5029      513962.32     -6678.4017      15625        
      1975   999.10397      513709.06     -6681.8024      15625        
      2000   979.02934      514274.08     -6682.8967      15625        
      2025   1019.1635      514734.23     -6673.8038      15625        
      2050   1020.6111      515843.84     -6669.6817      15625        
      2075   1036.8265      518448.49     -6657.4927      15625        
      2100   1036.7612      519695.59     -6652.709       15625        
      2125   1053.742       518936.63     -6652.8008      15625        
      2150   1090.4495      518573.87     -6648.594       15625        
      2175   1069.2354      521419.94     -6642.1847      15625        
      2200   1084.5416      523296.79     -6633.3287      15625        
      2225   1162.803       525428.09     -6610.9018      15625        
      2250   1129.4957      525274.56     -6617.0421      15625        
      2275   1115.8675      523497.86     -6626.6035      15625        
      2300   1144.92        526412.52     -6610.7726      15625        
      2325   1138.0765      527129.75     -6608.5357      15625        
      2350   1205.3684      528609.23     -6593.3913      15625        
      2375   1191.7841      530642.78     -6587.9768      15625        
      2400   1149.3704      527836.73     -6605.3381      15625        
      2425   1204.1253      527341.12     -6597.8516      15625        
      2450   1198.4376      532658.53     -6581.2638      15625        
      2475   1251.8218      534536.95     -6562.6684      15625        
      2500   1247.0116      535717.59     -6558.978       15625        
      2525   1262.2064      533974.92     -6564.4246      15625        
      2550   1313.8984      536166.8      -6547.2817      15625        
      2575   1295.9238      536439.7      -6548.1706      15625        
      2600   1302.9598      534468.61     -6554.174       15625        
      2625   1271.1997      535083.63     -6557.3996      15625        
      2650   1331.5729      538543.82     -6536.0457      15625        
      2675   1331.6433      541108.76     -6525.1301      15625        
      2700   1327.9078      539904.67     -6530.0116      15625        
      2725   1372.317       545159.47     -6502.9549      15625        
      2750   1355.2465      544002.3      -6510.9701      15625        
      2775   1390.5983      542829.17     -6509.7163      15625        
      2800   1432.1584      545778.73     -6490.7306      15625        
      2825   1383.7918      548173.33     -6490.4379      15625        
      2850   1420.4284      547437.26     -6486.3739      15625        
      2875   1445.8525      549107.56     -6476.8476      15625        
      2900   1464.9499      549409.53     -6473.1314      15625        
      2925   1475.6457      550265.75     -6468.5621      15625        
      2950   1438.3173      549869.5      -6475.4426      15625        
      2975   1460.1992      549698.32     -6471.707       15625        
      3000   1454.6746      550348.93     -6471.3097      15625        
      3025   1520.7499      554055.68     -6445.4626      15625        
      3050   1536.0222      558541.58     -6426.5934      15625        
      3075   1556.5891      556173.64     -6433.5333      15625        
      3100   1536.3411      555629.23     -6438.6275      15625        
      3125   1577.5504      558024.36     -6422.0815      15625        
      3150   1563.2318      558097.95     -6422.3791      15625        
      3175   1622.9231      558721.64     -6412.1204      15625        
      3200   1573.1724      557217.81     -6425.7563      15625        
      3225   1600.8808      560859.22     -6408.1506      15625        
      3250   1587.1088      559918.9      -6414.1036      15625        
      3275   1648.1723      562477.8      -6395.1155      15625        
      3300   1567.9986      562737.42     -6407.2431      15625        
      3325   1690.4153      562305.32     -6388.4599      15625        
      3350   1660.7765      563122.77     -6389.4635      15625        
      3375   1653.3356      563570.7      -6389.7158      15625        
      3400   1691.2695      567121.58     -6367.4285      15625        
      3425   1675.678       570181.21     -6361.1171      15625        
      3450   1700.6107      569844.79     -6356.3106      15625        
      3475   1761.6121      571051.93     -6341.1306      15625        
      3500   1802.5297      573194.17     -6329.0743      15625        
      3525   1741.1957      571042.4      -6345.6018      15625        
      3550   1785.9727      574521.79     -6326.7621      15625        
      3575   1713.5769      572979.15     -6342.9985      15625        
      3600   1866.5698      574271        -6314.3472      15625        
      3625   1821.4965      574662.53     -6319.8988      15625        
      3650   1800.6332      576258.43     -6317.5791      15625        
      3675   1811.5347      577609.26     -6310.5848      15625        
      3700   1846.8725      579263.66     -6296.7201      15625        
      3725   1844.5494      579860.89     -6297.042       15625        
      3750   1952.7006      582204.22     -6270.4893      15625        
      3775   1948.042       579034.36     -6283.8378      15625        
      3800   1868.8499      577904.5      -6298.6868      15625        
      3825   1912.8232      587030.63     -6257.8747      15625        
      3850   1890.6227      586071.16     -6265.059       15625        
      3875   1946.9492      586480.05     -6255.1597      15625        
      3900   1964.6002      586424.39     -6252.7373      15625        
      3925   2010.2802      585548.25     -6248.0822      15625        
      3950   1931.2352      585022.62     -6262.4869      15625        
      3975   2033.1865      590925.06     -6223.8247      15625        
      4000   2013.1688      591429.5      -6224.4216      15625        
      4025   2050.6867      591590.45     -6217.7696      15625        
      4050   2031.6666      587936.53     -6236.5669      15625        
      4075   2050.1868      594079.29     -6209.213       15625        
      4100   2101.1218      595748.79     -6191.6347      15625        
      4125   2016.0492      593641.71     -6216.2106      15625        
      4150   2041.8139      594936.28     -6207.4539      15625        
      4175   2057.7576      597131.99     -6197.762       15625        
      4200   2094.9257      599862.38     -6179.1054      15625        
      4225   2136.2783      601404.13     -6169.1156      15625        
      4250   2185.8819      595524.83     -6181.4187      15625        
      4275   2125.8951      595484.17     -6191.3298      15625        
      4300   2184.7047      604268.92     -6147.3703      15625        
      4325   2114.9653      600720.77     -6171.1102      15625        
      4350   2160.1655      602909.87     -6156.2971      15625        
      4375   2251.744       606497.2      -6131.375       15625        
      4400   2220.7863      607064.15     -6132.2869      15625        
      4425   2156.1408      600540.57     -6167.3688      15625        
      4450   2217.5989      607621.78     -6128.52        15625        
      4475   2351.354       609923.04     -6099.4353      15625        
      4500   2291.5341      609881.94     -6110.4106      15625        
      4525   2176.934       607975.04     -6137.2797      15625        
      4550   2319.1717      606418        -6116.49        15625        
      4575   2333.6002      615994.24     -6081.9406      15625        
      4600   2355.916       614530.05     -6081.7919      15625        
      4625   2228.5677      608537.75     -6125.4123      15625        
      4650   2306.1427      613538.37     -6092.203       15625        
      4675   2345.2182      616337.4      -6075.981       15625        
      4700   2375.7617      615977.5      -6074.1428      15625        
      4725   2359.5683      614450.94     -6083.1684      15625        
      4750   2397.4804      618736.71     -6059.7401      15625        
      4775   2418.6548      619554.94     -6051.0471      15625        
      4800   2449.0735      623284.22     -6032.832       15625        
      4825   2394.1926      620318.39     -6052.4664      15625        
      4850   2402.1813      621558.42     -6047.2943      15625        
      4875   2382.4767      622462.9      -6045.9075      15625        
      4900   2439.0901      620447.72     -6044.1361      15625        
      4925   2537.478       620894.36     -6029.6908      15625        
      4950   2568.4885      624507.59     -6010.6467      15625        
      4975   2479.0208      625562.48     -6018.4474      15625        
      5000   2592.5365      634634.26     -5963.8244      15625        
      5025   2533.416       630485.87     -5992.3318      15625        
      5050   2525.1551      624458.34     -6014.8439      15625        
      5075   2619.9431      635567.15     -5959.0564      15625        
      5100   2540.3328      629797.83     -5993.6297      15625        
      5125   2523.9512      630790.55     -5992.4087      15625        
      5150   2560.6097      630892.37     -5987.0657      15625        
      5175   2571.1164      632457.58     -5977.7211      15625        
      5200   2622.0883      639184.55     -5946.26        15625        
      5225   2580.0206      629270.54     -5988.9477      15625        
      5250   2686.2381      640742.45     -5928.7394      15625        
      5275   2660.7403      642787.84     -5924.8847      15625        
      5300   2583.1269      641664.03     -5941.1929      15625        
      5325   2686.4082      640579        -5928.2955      15625        
      5350   2730.2424      639246.11     -5925.2038      15625        
      5375   2789.7493      641103.43     -5908.7744      15625        
      5400   2651.5595      647811.87     -5906.0833      15625        
      5425   2772.2534      643630.95     -5901.3632      15625        
      5450   2728.66        644853.19     -5907.4721      15625        
      5475   2762.2462      636561.15     -5934.0876      15625        
      5500   2755.5714      643422.6      -5906.2163      15625        
      5525   2804.9904      645325.38     -5889.2825      15625        
      5550   2735.5404      649077.85     -5886.0935      15625        
      5575   2825.6943      658301.94     -5837.4007      15625        
      5600   2830.7349      643865.09     -5890.8408      15625        
      5625   2699.3002      653806.52     -5873.8793      15625        
      5650   2867.2112      656087.17     -5841.4905      15625        
      5675   2739.5291      651232.57     -5879.4132      15625        
      5700   2880.6281      650607.01     -5861.0332      15625        
      5725   2818.4076      652183.4      -5862.2914      15625        
      5750   2921.6131      658113.04     -5823.9046      15625        
      5775   2892.5987      660188.94     -5820.182       15625        
      5800   2974.5481      658758.54     -5816.0361      15625        
      5825   2855.6102      658828.16     -5834.9461      15625        
      5850   2949.1354      662408.58     -5807.0158      15625        
      5875   3013.0096      669638.42     -5765.8823      15625        
      5900   2929.8991      666867.59     -5787.6091      15625        
      5925   2989.2752      665063.14     -5787.4045      15625        
      5950   2931.3395      659682.9      -5814.9714      15625        
      5975   2938.0071      666110.97     -5790.1117      15625        
      6000   3021.8351      666445.3      -5774.2858      15625        
      6025   3001.5738      669752.07     -5765.9772      15625        
      6050   3103.5211      671814.27     -5739.9101      15625        
      6075   2993.6205      666980.94     -5776.3658      15625        
      6100   2996.6171      669320.88     -5771.6302      15625        
      6125   3089.6406      673994.9      -5737.4902      15625        
      6150   3158.6208      672726.67     -5727.2278      15625        
      6175   3100.813       670271.06     -5748.303       15625        
      6200   3056.9392      670926.49     -5756.8214      15625        
      6225   3142.1632      675974.14     -5721.5491      15625        
      6250   2985.4626      670784.64     -5767.8852      15625        
      6275   3125.9053      674415.29     -5726.706       15625        
      6300   3079.6287      673705.2      -5740.2845      15625        
      6325   3142.1823      675015.65     -5721.8866      15625        
      6350   3191.3728      685364.06     -5678.132       15625        
      6375   3129.1632      672807.91     -5733.1707      15625        
      6400   3170.2263      681049.95     -5695.5377      15625        
      6425   3232.0301      682458.17     -5680.5905      15625        
      6450   3294.4422      683227.53     -5668.6396      15625        
      6475   3239.8902      675111.29     -5707.8379      15625        
      6500   3313.8746      691975.12     -5630.8128      15625        
      6525   3330.3474      687671.34     -5643.2136      15625        
      6550   3220.4904      691003.45     -5648.6941      15625        
      6575   3275.3733      687068.54     -5656.3953      15625        
      6600   3381.1636      686301.39     -5642.2821      15625        
      6625   3343.7474      686765.98     -5645.09        15625        
      6650   3261.399       691278.79     -5642.8563      15625        
      6675   3271.5232      690393.01     -5642.6588      15625        
      6700   3357.725       691446.63     -5625.3484      15625        
      6725   3381.0309      692794.71     -5615.3916      15625        
      6750   3516.2267      696552.88     -5578.6555      15625        
      6775   3338.2414      697114.6      -5605.8516      15625        
      6800   3475.7028      694870.37     -5588.252       15625        
      6825   3327.7486      692736.13     -5624.1189      15625        
      6850   3393.6246      695618.45     -5603.3282      15625        
      6875   3493.8371      699161.89     -5570.8493      15625        
      6900   3526.2049      704414.59     -5547.9436      15625        
      6925   3397.2582      694393.15     -5606.35        15625        
      6950   3470.2726      702332.26     -5564.054       15625        
      6975   3565.9701      710973.87     -5517.7854      15625        
      7000   3627.9293      695152.33     -5569.072       15625        
      7025   3673.6584      701163.52     -5535.5183      15625        
      7050   3671.7698      714412.79     -5487.3248      15625        
      7075   3565.645       710782.05     -5518.8006      15625        
      7100   3449.8322      704618.51     -5561.5509      15625        
      7125   3532.9881      705813.59     -5540.2752      15625        
      7150   3611.1337      711633.34     -5506.893       15625        
      7175   3610.3663      706311.68     -5528.044       15625        
      7200   3619.3195      709868.88     -5509.7223      15625        
      7225   3662.402       718463.91     -5472.522       15625        
      7250   3715.7504      713599.86     -5479.8761      15625        
      7275   3658.8182      709074.11     -5506.3169      15625        
      7300   3596.1543      714206.58     -5498.3453      15625        
      7325   3750.6092      717593.25     -5463.9459      15625        
      7350   3751.2831      717781.17     -5463.2326      15625        
      7375   3760.2419      719042.5      -5451.8281      15625        
      7400   3680.5041      714602.61     -5483.6422      15625        
      7425   3721.6953      722719.03     -5447.2048      15625        
      7450   3787.0983      720332.63     -5444.928       15625        
      7475   3658.3332      724099.93     -5453.9236      15625        
      7500   3765.3089      721957.56     -5441.3468      15625        
      7525   3781.4923      729254.35     -5411.1152      15625        
      7550   3790.2166      724478.12     -5427.561       15625        
      7575   3772.5884      719228.47     -5452.627       15625        
      7600   3923.5254      730215.25     -5384.6662      15625        
      7625   3873.5859      723651.22     -5422.4167      15625        
      7650   3741.6399      728176.05     -5420.335       15625        
      7675   3894.6251      727281.22     -5402.3801      15625        
      7700   3905.8022      734934.24     -5369.9437      15625        
      7725   3845.9168      723358.01     -5420.1696      15625        
      7750   3826.0706      735359.5      -5382.1052      15625        
      7775   3832.0406      735104.71     -5380.7574      15625        
      7800   3907.4213      735148.29     -5367.6288      15625        
      7825   3984.7908      740111.39     -5336.696       15625        
      7850   3943.361       737361.92     -5353.746       15625        
      7875   3882.9362      735858.44     -5372.1825      15625        
      7900   4035.3016      734836.55     -5347.0084      15625        
      7925   4051.7172      752078        -5275.3688      15625        
      7950   3864.4814      737657.84     -5358.2856      15625        
      7975   3933.1061      737070.28     -5352.2312      15625        
      8000   3986.1116      742048.89     -5318.9466      15625        
      8025   4064.2492      746645        -5290.4779      15625        
      8050   3961.445       746400.38     -5313.1162      15625        
      8075   4154.3109      747286.89     -5275.018       15625        
      8100   4015.7524      749506.51     -5291.8654      15625        
      8125   3934.9118      749356.68     -5305.4249      15625        
      8150   4113.4357      750249.03     -5273.6484      15625        
      8175   4225.5296      754386.06     -5237.6854      15625        
      8200   4013.9083      758518.43     -5253.7651      15625        
      8225   4046.8339      749705.68     -5288.5605      15625        
      8250   4176.2942      753151.06     -5248.3531      15625        
      8275   4078.9582      767409.62     -5210.3115      15625        
      8300   4180.9046      751961.43     -5251.016       15625        
      8325   4075.0238      755482.24     -5257.5467      15625        
      8350   4147.0025      769388.35     -5188.7425      15625        
      8375   4223.267       762013.02     -5205.2391      15625        
      8400   4131.4012      766380.41     -5203.8993      15625        
      8425   4160.5066      761128.02     -5215.8874      15625        
      8450   4165.4693      766368.02     -5198.2085      15625        
      8475   4141.5771      763179.91     -5218.8953      15625        
      8500   4157.7558      760148.46     -5224.9032      15625        
      8525   4128.6956      762207.58     -5221.9997      15625        
      8550   4302.0844      768984.64     -5166.4636      15625        
      8575   4268.9053      758879.9      -5208.4255      15625        
      8600   4328.6869      768824.41     -5165.4368      15625        
      8625   4236.1207      764524.74     -5195.1637      15625        
      8650   4349.5039      765150.18     -5171.2852      15625        
      8675   4332.1087      769595.5      -5159.5371      15625        
      8700   4379.6347      775719.68     -5129.6392      15625        
      8725   4296.036       768468.68     -5168.0138      15625        
      8750   4378.2005      781584.61     -5101.7881      15625        
      8775   4364.9614      779228.38     -5115.878       15625        
      8800   4335.4464      778764.54     -5121.9844      15625        
      8825   4664.6393      778483.36     -5075.7935      15625        
      8850   4536.8568      770173.26     -5125.156       15625        
      8875   4430.8607      781447.18     -5099.6648      15625        
      8900   4366.0307      781749.84     -5106.5543      15625        
      8925   4420.4988      787122.52     -5073.7317      15625        
      8950   4374.0296      781960.98     -5108.204       15625        
      8975   4481.7924      791351.17     -5048.2763      15625        
      9000   4340.0991      776188.35     -5131.9228      15625        
      9025   4572.2376      786833.96     -5051.7517      15625        
      9050   4541.8577      789914.87     -5042.636       15625        
      9075   4502.9701      792777.83     -5043.8773      15625        
      9100   4515.2245      791416.01     -5048.1548      15625        
      9125   4531.8795      793942.09     -5031.384       15625        
      9150   4599.8782      789909.27     -5039.3458      15625        
      9175   4667.1556      797939.87     -4991.2196      15625        
      9200   4618.8231      789569.95     -5037.447       15625        
      9225   4665.5977      802275.19     -4979.0484      15625        
      9250   4578.2619      792581.37     -5035.6972      15625        
      9275   4720.5909      802218.16     -4971.6542      15625        
      9300   4730.2055      809205.6      -4942.9161      15625        
      9325   4610.0207      804214.91     -4978.535       15625        
      9350   4715.5016      799598.78     -4976.7942      15625        
      9375   4800.7235      800616.78     -4959.5309      15625        
      9400   4642.5383      797604.9      -5003.255       15625        
      9425   4657.1488      806739.09     -4964.2112      15625        
      9450   4653.2354      799586.75     -4988.1886      15625        
      9475   4800.2969      811504.5      -4925.3942      15625        
      9500   4793.7469      803918.14     -4948.0077      15625        
      9525   4680.8756      810897.66     -4945.806       15625        
      9550   4583.0662      805152.97     -4977.3236      15625        
      9575   4875.3997      799529.46     -4954.957       15625        
      9600   4745.4105      808202.22     -4941.7912      15625        
      9625   4719.9145      811044.7      -4935.0321      15625        
      9650   4820.2465      829737.41     -4848.0077      15625        
      9675   4867.1907      822903.29     -4865.3386      15625        
      9700   4809.105       819737.43     -4890.1361      15625        
      9725   4701.6153      816491.13     -4915.4782      15625        
      9750   4944.8538      819394.16     -4866.2238      15625        
      9775   4760.6003      826486.26     -4869.4793      15625        
      9800   5100.3473      843372.2      -4746.3453      15625        
      9825   4894.7577      836892.08     -4809.121       15625        
      9850   4764.9914      831238.85     -4847.1664      15625        
      9875   4981.5891      831958.56     -4810.886       15625        
      9900   4833.1041      844366.42     -4787.8865      15625        
      9925   4871.5581      834949.76     -4816.6852      15625        
      9950   5010.1367      838965.79     -4783.9887      15625        
      9975   4971.0129      854225.26     -4729.3851      15625        
     10000   5077.9747      837957.07     -4768.3598      15625        
Loop time of 28.1535 on 1 procs for 10000 steps with 1688 atoms

Performance: 153.445 ns/day, 0.156 hours/ns, 355.196 timesteps/s, 599.571 katom-step/s
97.5% CPU use with 1 MPI tasks x 1 OpenMP threads

MPI task timing breakdown:
Section |  min time  |  avg time  |  max time  |%varavg| %total
---------------------------------------------------------------
Pair    | 23.483     | 23.483     | 23.483     |   0.0 | 83.41
Neigh   | 3.6431     | 3.6431     | 3.6431     |   0.0 | 12.94
Comm    | 0.25536    | 0.25536    | 0.25536    |   0.0 |  0.91
Output  | 0.11026    | 0.11026    | 0.11026    |   0.0 |  0.39
Modify  | 0.56798    | 0.56798    | 0.56798    |   0.0 |  2.02
Other   |            | 0.09374    |            |       |  0.33

Nlocal:           1688 ave        1688 max        1688 min
Histogram: 1 0 0 0 0 0 0 0 0 0
Nghost:           4061 ave        4061 max        4061 min
Histogram: 1 0 0 0 0 0 0 0 0 0
Neighs:          96234 ave       96234 max       96234 min
Histogram: 1 0 0 0 0 0 0 0 0 0

Total # of neighbors = 96234
Ave neighs/atom = 57.010664
Neighbor list builds = 1182
Dangerous builds = 1


Total wall time: 0:00:28
