ITEM: TIMESTEP
0
ITEM: NUMBER OF ATOMS
1000
ITEM: BOX BOUNDS pp pp pp
0.0000000000000000e+00 1.7849999999999998e+01
0.0000000000000000e+00 1.7849999999999998e+01
0.0000000000000000e+00 1.7849999999999998e+01
ITEM: ATOMS id type x y z
1 1 0 0 0
2 1 0 1.785 1.785
3 1 1.785 0 1.785
4 1 1.785 1.785 0
5 1 0.8925 0.8925 0.8925
6 1 0.8925 2.6775 2.6775
7 1 2.6775 0.8925 2.6775
8 1 2.6775 2.6775 0.8925
9 1 3.57 0 0
10 1 3.57 1.785 1.785
11 1 5.355 0 1.785
12 1 5.355 1.785 0
13 1 4.4625 0.8925 0.8925
14 1 4.4625 2.6775 2.6775
15 1 6.2475 0.8925 2.6775
16 1 6.2475 2.6775 0.8925
17 1 7.14 0 0
18 1 7.14 1.785 1.785
21 1 8.0325 0.8925 0.8925
22 1 8.0325 2.6775 2.6775
41 1 0 3.57 0
42 1 0 5.355 1.785
43 1 1.785 3.57 1.785
44 1 1.785 5.355 0
45 1 0.8925 4.4625 0.8925
46 1 0.8925 6.2475 2.6775
47 1 2.6775 4.4625 2.6775
48 1 2.6775 6.2475 0.8925
49 1 3.57 3.57 0
50 1 3.57 5.355 1.785
51 1 5.355 3.57 1.785
52 1 5.355 5.355 0
53 1 4.4625 4.4625 0.8925
54 1 4.4625 6.2475 2.6775
55 1 6.2475 4.4625 2.6775
56 1 6.2475 6.2475 0.8925
57 1 7.14 3.57 0
58 1 7.14 5.355 1.785
61 1 8.0325 4.4625 0.8925
62 1 8.0325 6.2475 2.6775
81 1 0 7.14 0
83 1 1.785 7.14 1.785
85 1 0.8925 8.0325 0.8925
87 1 2.6775 8.0325 2.6775
89 1 3.57 7.14 0
91 1 5.355 7.14 1.785
93 1 4.4625 8.0325 0.8925
95 1 6.2475 8.0325 2.6775
97 1 7.14 7.14 0
101 1 8.0325 8.0325 0.8925
201 1 0 0 3.57
202 1 0 1.785 5.355
203 1 1.785 0 5.355
204 1 1.785 1.785 3.57
205 1 0.8925 0.8925 4.4625
206 1 0.8925 2.6775 6.2475
207 1 2.6775 0.8925 6.2475
208 1 2.6775 2.6775 4.4625
209 1 3.57 0 3.57
210 1 3.57 1.785 5.355
211 1 5.355 0 5.355
212 1 5.355 1.785 3.57
213 1 4.4625 0.8925 4.4625
214 1 4.4625 2.6775 6.2475
215 1 6.2475 0.8925 6.2475
216 1 6.2475 2.6775 4.4625
217 1 7.14 0 3.57
218 1 7.14 1.785 5.355
221 1 8.0325 0.8925 4.4625
222 1 8.0325 2.6775 6.2475
241 1 0 3.57 3.57
242 1 0 5.355 5.355
243 1 1.785 3.57 5.355
244 1 1.785 5.355 3.57
245 1 0.8925 4.4625 4.4625
246 1 0.8925 6.2475 6.2475
247 1 2.6775 4.4625 6.2475
248 1 2.6775 6.2475 4.4625
249 1 3.57 3.57 3.57
250 1 3.57 5.355 5.355
251 1 5.355 3.57 5.355
252 1 5.355 5.355 3.57
253 1 4.4625 4.4625 4.4625
254 1 4.4625 6.2475 6.2475
255 1 6.2475 4.4625 6.2475
256 1 6.2475 6.2475 4.4625
257 1 7.14 3.57 3.57
258 1 7.14 5.355 5.355
261 1 8.0325 4.4625 4.4625
262 1 8.0325 6.2475 6.2475
281 1 0 7.14 3.57
283 1 1.785 7.14 5.355
285 1 0.8925 8.0325 4.4625
287 1 2.6775 8.0325 6.2475
289 1 3.57 7.14 3.57
291 1 5.355 7.14 5.355
293 1 4.4625 8.0325 4.4625
295 1 6.2475 8.0325 6.2475
297 1 7.14 7.14 3.57
301 1 8.0325 8.0325 4.4625
401 1 0 0 7.14
404 1 1.785 1.785 7.14
405 1 0.8925 0.8925 8.0325
408 1 2.6775 2.6775 8.0325
409 1 3.57 0 7.14
412 1 5.355 1.785 7.14
413 1 4.4625 0.8925 8.0325
416 1 6.2475 2.6775 8.0325
417 1 7.14 0 7.14
421 1 8.0325 0.8925 8.0325
441 1 0 3.57 7.14
444 1 1.785 5.355 7.14
445 1 0.8925 4.4625 8.0325
448 1 2.6775 6.2475 8.0325
449 1 3.57 3.57 7.14
452 1 5.355 5.355 7.14
453 1 4.4625 4.4625 8.0325
456 1 6.2475 6.2475 8.0325
457 1 7.14 3.57 7.14
461 1 8.0325 4.4625 8.0325
481 1 0 7.14 7.14
485 1 0.8925 8.0325 8.0325
489 1 3.57 7.14 7.14
493 1 4.4625 8.0325 8.0325
497 1 7.14 7.14 7.14
501 1 8.0325 8.0325 8.0325
19 1 8.925 0 1.785
20 1 8.925 1.785 0
23 1 9.8175 0.8925 2.6775
24 1 9.8175 2.6775 0.8925
25 1 10.71 0 0
26 1 10.71 1.785 1.785
27 1 12.495 0 1.785
28 1 12.495 1.785 0
29 1 11.6025 0.8925 0.8925
30 1 11.6025 2.6775 2.6775
31 1 13.3875 0.8925 2.6775
32 1 13.3875 2.6775 0.8925
33 1 14.28 0 0
34 1 14.28 1.785 1.785
35 1 16.065 0 1.785
36 1 16.065 1.785 0
37 1 15.1725 0.8925 0.8925
38 1 15.1725 2.6775 2.6775
39 1 16.9575 0.8925 2.6775
40 1 16.9575 2.6775 0.8925
59 1 8.925 3.57 1.785
60 1 8.925 5.355 0
63 1 9.8175 4.4625 2.6775
64 1 9.8175 6.2475 0.8925
65 1 10.71 3.57 0
66 1 10.71 5.355 1.785
67 1 12.495 3.57 1.785
68 1 12.495 5.355 0
69 1 11.6025 4.4625 0.8925
70 1 11.6025 6.2475 2.6775
71 1 13.3875 4.4625 2.6775
72 1 13.3875 6.2475 0.8925
73 1 14.28 3.57 0
74 1 14.28 5.355 1.785
75 1 16.065 3.57 1.785
76 1 16.065 5.355 0
77 1 15.1725 4.4625 0.8925
78 1 15.1725 6.2475 2.6775
79 1 16.9575 4.4625 2.6775
80 1 16.9575 6.2475 0.8925
99 1 8.925 7.14 1.785
103 1 9.8175 8.0325 2.6775
105 1 10.71 7.14 0
107 1 12.495 7.14 1.785
109 1 11.6025 8.0325 0.8925
111 1 13.3875 8.0325 2.6775
113 1 14.28 7.14 0
115 1 16.065 7.14 1.785
117 1 15.1725 8.0325 0.8925
119 1 16.9575 8.0325 2.6775
219 1 8.925 0 5.355
220 1 8.925 1.785 3.57
223 1 9.8175 0.8925 6.2475
224 1 9.8175 2.6775 4.4625
225 1 10.71 0 3.57
226 1 10.71 1.785 5.355
227 1 12.495 0 5.355
228 1 12.495 1.785 3.57
229 1 11.6025 0.8925 4.4625
230 1 11.6025 2.6775 6.2475
231 1 13.3875 0.8925 6.2475
232 1 13.3875 2.6775 4.4625
233 1 14.28 0 3.57
234 1 14.28 1.785 5.355
235 1 16.065 0 5.355
236 1 16.065 1.785 3.57
237 1 15.1725 0.8925 4.4625
238 1 15.1725 2.6775 6.2475
239 1 16.9575 0.8925 6.2475
240 1 16.9575 2.6775 4.4625
259 1 8.925 3.57 5.355
260 1 8.925 5.355 3.57
263 1 9.8175 4.4625 6.2475
264 1 9.8175 6.2475 4.4625
265 1 10.71 3.57 3.57
266 1 10.71 5.355 5.355
267 1 12.495 3.57 5.355
268 1 12.495 5.355 3.57
269 1 11.6025 4.4625 4.4625
270 1 11.6025 6.2475 6.2475
271 1 13.3875 4.4625 6.2475
272 1 13.3875 6.2475 4.4625
273 1 14.28 3.57 3.57
274 1 14.28 5.355 5.355
275 1 16.065 3.57 5.355
276 1 16.065 5.355 3.57
277 1 15.1725 4.4625 4.4625
278 1 15.1725 6.2475 6.2475
279 1 16.9575 4.4625 6.2475
280 1 16.9575 6.2475 4.4625
299 1 8.925 7.14 5.355
303 1 9.8175 8.0325 6.2475
305 1 10.71 7.14 3.57
307 1 12.495 7.14 5.355
309 1 11.6025 8.0325 4.4625
311 1 13.3875 8.0325 6.2475
313 1 14.28 7.14 3.57
315 1 16.065 7.14 5.355
317 1 15.1725 8.0325 4.4625
319 1 16.9575 8.0325 6.2475
420 1 8.925 1.785 7.14
424 1 9.8175 2.6775 8.0325
425 1 10.71 0 7.14
428 1 12.495 1.785 7.14
429 1 11.6025 0.8925 8.0325
432 1 13.3875 2.6775 8.0325
433 1 14.28 0 7.14
436 1 16.065 1.785 7.14
437 1 15.1725 0.8925 8.0325
440 1 16.9575 2.6775 8.0325
460 1 8.925 5.355 7.14
464 1 9.8175 6.2475 8.0325
465 1 10.71 3.57 7.14
468 1 12.495 5.355 7.14
469 1 11.6025 4.4625 8.0325
472 1 13.3875 6.2475 8.0325
473 1 14.28 3.57 7.14
476 1 16.065 5.355 7.14
477 1 15.1725 4.4625 8.0325
480 1 16.9575 6.2475 8.0325
505 1 10.71 7.14 7.14
509 1 11.6025 8.0325 8.0325
513 1 14.28 7.14 7.14
517 1 15.1725 8.0325 8.0325
82 1 0 8.925 1.785
84 1 1.785 8.925 0
86 1 0.8925 9.8175 2.6775
88 1 2.6775 9.8175 0.8925
90 1 3.57 8.925 1.785
92 1 5.355 8.925 0
94 1 4.4625 9.8175 2.6775
96 1 6.2475 9.8175 0.8925
98 1 7.14 8.925 1.785
102 1 8.0325 9.8175 2.6775
121 1 0 10.71 0
122 1 0 12.495 1.785
123 1 1.785 10.71 1.785
124 1 1.785 12.495 0
125 1 0.8925 11.6025 0.8925
126 1 0.8925 13.3875 2.6775
127 1 2.6775 11.6025 2.6775
128 1 2.6775 13.3875 0.8925
129 1 3.57 10.71 0
130 1 3.57 12.495 1.785
131 1 5.355 10.71 1.785
132 1 5.355 12.495 0
133 1 4.4625 11.6025 0.8925
134 1 4.4625 13.3875 2.6775
135 1 6.2475 11.6025 2.6775
136 1 6.2475 13.3875 0.8925
137 1 7.14 10.71 0
138 1 7.14 12.495 1.785
141 1 8.0325 11.6025 0.8925
142 1 8.0325 13.3875 2.6775
161 1 0 14.28 0
162 1 0 16.065 1.785
163 1 1.785 14.28 1.785
164 1 1.785 16.065 0
165 1 0.8925 15.1725 0.8925
166 1 0.8925 16.9575 2.6775
167 1 2.6775 15.1725 2.6775
168 1 2.6775 16.9575 0.8925
169 1 3.57 14.28 0
170 1 3.57 16.065 1.785
171 1 5.355 14.28 1.785
172 1 5.355 16.065 0
173 1 4.4625 15.1725 0.8925
174 1 4.4625 16.9575 2.6775
175 1 6.2475 15.1725 2.6775
176 1 6.2475 16.9575 0.8925
177 1 7.14 14.28 0
178 1 7.14 16.065 1.785
181 1 8.0325 15.1725 0.8925
182 1 8.0325 16.9575 2.6775
282 1 0 8.925 5.355
284 1 1.785 8.925 3.57
286 1 0.8925 9.8175 6.2475
288 1 2.6775 9.8175 4.4625
290 1 3.57 8.925 5.355
292 1 5.355 8.925 3.57
294 1 4.4625 9.8175 6.2475
296 1 6.2475 9.8175 4.4625
298 1 7.14 8.925 5.355
302 1 8.0325 9.8175 6.2475
321 1 0 10.71 3.57
322 1 0 12.495 5.355
323 1 1.785 10.71 5.355
324 1 1.785 12.495 3.57
325 1 0.8925 11.6025 4.4625
326 1 0.8925 13.3875 6.2475
327 1 2.6775 11.6025 6.2475
328 1 2.6775 13.3875 4.4625
329 1 3.57 10.71 3.57
330 1 3.57 12.495 5.355
331 1 5.355 10.71 5.355
332 1 5.355 12.495 3.57
333 1 4.4625 11.6025 4.4625
334 1 4.4625 13.3875 6.2475
335 1 6.2475 11.6025 6.2475
336 1 6.2475 13.3875 4.4625
337 1 7.14 10.71 3.57
338 1 7.14 12.495 5.355
341 1 8.0325 11.6025 4.4625
342 1 8.0325 13.3875 6.2475
361 1 0 14.28 3.57
362 1 0 16.065 5.355
363 1 1.785 14.28 5.355
364 1 1.785 16.065 3.57
365 1 0.8925 15.1725 4.4625
366 1 0.8925 16.9575 6.2475
367 1 2.6775 15.1725 6.2475
368 1 2.6775 16.9575 4.4625
369 1 3.57 14.28 3.57
370 1 3.57 16.065 5.355
371 1 5.355 14.28 5.355
372 1 5.355 16.065 3.57
373 1 4.4625 15.1725 4.4625
374 1 4.4625 16.9575 6.2475
375 1 6.2475 15.1725 6.2475
376 1 6.2475 16.9575 4.4625
377 1 7.14 14.28 3.57
378 1 7.14 16.065 5.355
381 1 8.0325 15.1725 4.4625
382 1 8.0325 16.9575 6.2475
484 1 1.785 8.925 7.14
488 1 2.6775 9.8175 8.0325
492 1 5.355 8.925 7.14
496 1 6.2475 9.8175 8.0325
521 1 0 10.71 7.14
524 1 1.785 12.495 7.14
525 1 0.8925 11.6025 8.0325
528 1 2.6775 13.3875 8.0325
529 1 3.57 10.71 7.14
532 1 5.355 12.495 7.14
533 1 4.4625 11.6025 8.0325
536 1 6.2475 13.3875 8.0325
537 1 7.14 10.71 7.14
541 1 8.0325 11.6025 8.0325
561 1 0 14.28 7.14
564 1 1.785 16.065 7.14
565 1 0.8925 15.1725 8.0325
568 1 2.6775 16.9575 8.0325
569 1 3.57 14.28 7.14
572 1 5.355 16.065 7.14
573 1 4.4625 15.1725 8.0325
576 1 6.2475 16.9575 8.0325
577 1 7.14 14.28 7.14
581 1 8.0325 15.1725 8.0325
100 1 8.925 8.925 0
104 1 9.8175 9.8175 0.8925
106 1 10.71 8.925 1.785
108 1 12.495 8.925 0
110 1 11.6025 9.8175 2.6775
112 1 13.3875 9.8175 0.8925
114 1 14.28 8.925 1.785
116 1 16.065 8.925 0
118 1 15.1725 9.8175 2.6775
120 1 16.9575 9.8175 0.8925
139 1 8.925 10.71 1.785
140 1 8.925 12.495 0
143 1 9.8175 11.6025 2.6775
144 1 9.8175 13.3875 0.8925
145 1 10.71 10.71 0
146 1 10.71 12.495 1.785
147 1 12.495 10.71 1.785
148 1 12.495 12.495 0
149 1 11.6025 11.6025 0.8925
150 1 11.6025 13.3875 2.6775
151 1 13.3875 11.6025 2.6775
152 1 13.3875 13.3875 0.8925
153 1 14.28 10.71 0
154 1 14.28 12.495 1.785
155 1 16.065 10.71 1.785
156 1 16.065 12.495 0
157 1 15.1725 11.6025 0.8925
158 1 15.1725 13.3875 2.6775
159 1 16.9575 11.6025 2.6775
160 1 16.9575 13.3875 0.8925
179 1 8.925 14.28 1.785
180 1 8.925 16.065 0
183 1 9.8175 15.1725 2.6775
184 1 9.8175 16.9575 0.8925
185 1 10.71 14.28 0
186 1 10.71 16.065 1.785
187 1 12.495 14.28 1.785
188 1 12.495 16.065 0
189 1 11.6025 15.1725 0.8925
190 1 11.6025 16.9575 2.6775
191 1 13.3875 15.1725 2.6775
192 1 13.3875 16.9575 0.8925
193 1 14.28 14.28 0
194 1 14.28 16.065 1.785
195 1 16.065 14.28 1.785
196 1 16.065 16.065 0
197 1 15.1725 15.1725 0.8925
198 1 15.1725 16.9575 2.6775
199 1 16.9575 15.1725 2.6775
200 1 16.9575 16.9575 0.8925
300 1 8.925 8.925 3.57
304 1 9.8175 9.8175 4.4625
306 1 10.71 8.925 5.355
308 1 12.495 8.925 3.57
310 1 11.6025 9.8175 6.2475
312 1 13.3875 9.8175 4.4625
314 1 14.28 8.925 5.355
316 1 16.065 8.925 3.57
318 1 15.1725 9.8175 6.2475
320 1 16.9575 9.8175 4.4625
339 1 8.925 10.71 5.355
340 1 8.925 12.495 3.57
343 1 9.8175 11.6025 6.2475
344 1 9.8175 13.3875 4.4625
345 1 10.71 10.71 3.57
346 1 10.71 12.495 5.355
347 1 12.495 10.71 5.355
348 1 12.495 12.495 3.57
349 1 11.6025 11.6025 4.4625
350 1 11.6025 13.3875 6.2475
351 1 13.3875 11.6025 6.2475
352 1 13.3875 13.3875 4.4625
353 1 14.28 10.71 3.57
354 1 14.28 12.495 5.355
355 1 16.065 10.71 5.355
356 1 16.065 12.495 3.57
357 1 15.1725 11.6025 4.4625
358 1 15.1725 13.3875 6.2475
359 1 16.9575 11.6025 6.2475
360 1 16.9575 13.3875 4.4625
379 1 8.925 14.28 5.355
380 1 8.925 16.065 3.57
383 1 9.8175 15.1725 6.2475
384 1 9.8175 16.9575 4.4625
385 1 10.71 14.28 3.57
386 1 10.71 16.065 5.355
387 1 12.495 14.28 5.355
388 1 12.495 16.065 3.57
389 1 11.6025 15.1725 4.4625
390 1 11.6025 16.9575 6.2475
391 1 13.3875 15.1725 6.2475
392 1 13.3875 16.9575 4.4625
393 1 14.28 14.28 3.57
394 1 14.28 16.065 5.355
395 1 16.065 14.28 5.355
396 1 16.065 16.065 3.57
397 1 15.1725 15.1725 4.4625
398 1 15.1725 16.9575 6.2475
399 1 16.9575 15.1725 6.2475
400 1 16.9575 16.9575 4.4625
500 1 8.925 8.925 7.14
504 1 9.8175 9.8175 8.0325
508 1 12.495 8.925 7.14
512 1 13.3875 9.8175 8.0325
516 1 16.065 8.925 7.14
520 1 16.9575 9.8175 8.0325
540 1 8.925 12.495 7.14
544 1 9.8175 13.3875 8.0325
545 1 10.71 10.71 7.14
548 1 12.495 12.495 7.14
549 1 11.6025 11.6025 8.0325
552 1 13.3875 13.3875 8.0325
553 1 14.28 10.71 7.14
556 1 16.065 12.495 7.14
557 1 15.1725 11.6025 8.0325
560 1 16.9575 13.3875 8.0325
580 1 8.925 16.065 7.14
584 1 9.8175 16.9575 8.0325
585 1 10.71 14.28 7.14
588 1 12.495 16.065 7.14
589 1 11.6025 15.1725 8.0325
592 1 13.3875 16.9575 8.0325
593 1 14.28 14.28 7.14
596 1 16.065 16.065 7.14
597 1 15.1725 15.1725 8.0325
600 1 16.9575 16.9575 8.0325
402 1 0 1.785 8.925
403 1 1.785 0 8.925
406 1 0.8925 2.6775 9.8175
407 1 2.6775 0.8925 9.8175
410 1 3.57 1.785 8.925
411 1 5.355 0 8.925
414 1 4.4625 2.6775 9.8175
415 1 6.2475 0.8925 9.8175
418 1 7.14 1.785 8.925
422 1 8.0325 2.6775 9.8175
442 1 0 5.355 8.925
443 1 1.785 3.57 8.925
446 1 0.8925 6.2475 9.8175
447 1 2.6775 4.4625 9.8175
450 1 3.57 5.355 8.925
451 1 5.355 3.57 8.925
454 1 4.4625 6.2475 9.8175
455 1 6.2475 4.4625 9.8175
458 1 7.14 5.355 8.925
462 1 8.0325 6.2475 9.8175
483 1 1.785 7.14 8.925
487 1 2.6775 8.0325 9.8175
491 1 5.355 7.14 8.925
495 1 6.2475 8.0325 9.8175
601 1 0 0 10.71
602 1 0 1.785 12.495
603 1 1.785 0 12.495
604 1 1.785 1.785 10.71
605 1 0.8925 0.8925 11.6025
606 1 0.8925 2.6775 13.3875
607 1 2.6775 0.8925 13.3875
608 1 2.6775 2.6775 11.6025
609 1 3.57 0 10.71
610 1 3.57 1.785 12.495
611 1 5.355 0 12.495
612 1 5.355 1.785 10.71
613 1 4.4625 0.8925 11.6025
614 1 4.4625 2.6775 13.3875
615 1 6.2475 0.8925 13.3875
616 1 6.2475 2.6775 11.6025
617 1 7.14 0 10.71
618 1 7.14 1.785 12.495
621 1 8.0325 0.8925 11.6025
622 1 8.0325 2.6775 13.3875
641 1 0 3.57 10.71
642 1 0 5.355 12.495
643 1 1.785 3.57 12.495
644 1 1.785 5.355 10.71
645 1 0.8925 4.4625 11.6025
646 1 0.8925 6.2475 13.3875
647 1 2.6775 4.4625 13.3875
648 1 2.6775 6.2475 11.6025
649 1 3.57 3.57 10.71
650 1 3.57 5.355 12.495
651 1 5.355 3.57 12.495
652 1 5.355 5.355 10.71
653 1 4.4625 4.4625 11.6025
654 1 4.4625 6.2475 13.3875
655 1 6.2475 4.4625 13.3875
656 1 6.2475 6.2475 11.6025
657 1 7.14 3.57 10.71
658 1 7.14 5.355 12.495
661 1 8.0325 4.4625 11.6025
662 1 8.0325 6.2475 13.3875
681 1 0 7.14 10.71
683 1 1.785 7.14 12.495
685 1 0.8925 8.0325 11.6025
687 1 2.6775 8.0325 13.3875
689 1 3.57 7.14 10.71
691 1 5.355 7.14 12.495
693 1 4.4625 8.0325 11.6025
695 1 6.2475 8.0325 13.3875
697 1 7.14 7.14 10.71
701 1 8.0325 8.0325 11.6025
801 1 0 0 14.28
802 1 0 1.785 16.065
803 1 1.785 0 16.065
804 1 1.785 1.785 14.28
805 1 0.8925 0.8925 15.1725
806 1 0.8925 2.6775 16.9575
807 1 2.6775 0.8925 16.9575
808 1 2.6775 2.6775 15.1725
809 1 3.57 0 14.28
810 1 3.57 1.785 16.065
811 1 5.355 0 16.065
812 1 5.355 1.785 14.28
813 1 4.4625 0.8925 15.1725
814 1 4.4625 2.6775 16.9575
815 1 6.2475 0.8925 16.9575
816 1 6.2475 2.6775 15.1725
817 1 7.14 0 14.28
818 1 7.14 1.785 16.065
821 1 8.0325 0.8925 15.1725
822 1 8.0325 2.6775 16.9575
841 1 0 3.57 14.28
842 1 0 5.355 16.065
843 1 1.785 3.57 16.065
844 1 1.785 5.355 14.28
845 1 0.8925 4.4625 15.1725
846 1 0.8925 6.2475 16.9575
847 1 2.6775 4.4625 16.9575
848 1 2.6775 6.2475 15.1725
849 1 3.57 3.57 14.28
850 1 3.57 5.355 16.065
851 1 5.355 3.57 16.065
852 1 5.355 5.355 14.28
853 1 4.4625 4.4625 15.1725
854 1 4.4625 6.2475 16.9575
855 1 6.2475 4.4625 16.9575
856 1 6.2475 6.2475 15.1725
857 1 7.14 3.57 14.28
858 1 7.14 5.355 16.065
861 1 8.0325 4.4625 15.1725
862 1 8.0325 6.2475 16.9575
881 1 0 7.14 14.28
883 1 1.785 7.14 16.065
885 1 0.8925 8.0325 15.1725
887 1 2.6775 8.0325 16.9575
889 1 3.57 7.14 14.28
891 1 5.355 7.14 16.065
893 1 4.4625 8.0325 15.1725
895 1 6.2475 8.0325 16.9575
897 1 7.14 7.14 14.28
901 1 8.0325 8.0325 15.1725
419 1 8.925 0 8.925
423 1 9.8175 0.8925 9.8175
426 1 10.71 1.785 8.925
427 1 12.495 0 8.925
430 1 11.6025 2.6775 9.8175
431 1 13.3875 0.8925 9.8175
434 1 14.28 1.785 8.925
435 1 16.065 0 8.925
438 1 15.1725 2.6775 9.8175
439 1 16.9575 0.8925 9.8175
459 1 8.925 3.57 8.925
463 1 9.8175 4.4625 9.8175
466 1 10.71 5.355 8.925
467 1 12.495 3.57 8.925
470 1 11.6025 6.2475 9.8175
471 1 13.3875 4.4625 9.8175
474 1 14.28 5.355 8.925
475 1 16.065 3.57 8.925
478 1 15.1725 6.2475 9.8175
479 1 16.9575 4.4625 9.8175
499 1 8.925 7.14 8.925
503 1 9.8175 8.0325 9.8175
507 1 12.495 7.14 8.925
511 1 13.3875 8.0325 9.8175
515 1 16.065 7.14 8.925
519 1 16.9575 8.0325 9.8175
619 1 8.925 0 12.495
620 1 8.925 1.785 10.71
623 1 9.8175 0.8925 13.3875
624 1 9.8175 2.6775 11.6025
625 1 10.71 0 10.71
626 1 10.71 1.785 12.495
627 1 12.495 0 12.495
628 1 12.495 1.785 10.71
629 1 11.6025 0.8925 11.6025
630 1 11.6025 2.6775 13.3875
631 1 13.3875 0.8925 13.3875
632 1 13.3875 2.6775 11.6025
633 1 14.28 0 10.71
634 1 14.28 1.785 12.495
635 1 16.065 0 12.495
636 1 16.065 1.785 10.71
637 1 15.1725 0.8925 11.6025
638 1 15.1725 2.6775 13.3875
639 1 16.9575 0.8925 13.3875
640 1 16.9575 2.6775 11.6025
659 1 8.925 3.57 12.495
660 1 8.925 5.355 10.71
663 1 9.8175 4.4625 13.3875
664 1 9.8175 6.2475 11.6025
665 1 10.71 3.57 10.71
666 1 10.71 5.355 12.495
667 1 12.495 3.57 12.495
668 1 12.495 5.355 10.71
669 1 11.6025 4.4625 11.6025
670 1 11.6025 6.2475 13.3875
671 1 13.3875 4.4625 13.3875
672 1 13.3875 6.2475 11.6025
673 1 14.28 3.57 10.71
674 1 14.28 5.355 12.495
675 1 16.065 3.57 12.495
676 1 16.065 5.355 10.71
677 1 15.1725 4.4625 11.6025
678 1 15.1725 6.2475 13.3875
679 1 16.9575 4.4625 13.3875
680 1 16.9575 6.2475 11.6025
699 1 8.925 7.14 12.495
703 1 9.8175 8.0325 13.3875
705 1 10.71 7.14 10.71
707 1 12.495 7.14 12.495
709 1 11.6025 8.0325 11.6025
711 1 13.3875 8.0325 13.3875
713 1 14.28 7.14 10.71
715 1 16.065 7.14 12.495
717 1 15.1725 8.0325 11.6025
719 1 16.9575 8.0325 13.3875
819 1 8.925 0 16.065
820 1 8.925 1.785 14.28
823 1 9.8175 0.8925 16.9575
824 1 9.8175 2.6775 15.1725
825 1 10.71 0 14.28
826 1 10.71 1.785 16.065
827 1 12.495 0 16.065
828 1 12.495 1.785 14.28
829 1 11.6025 0.8925 15.1725
830 1 11.6025 2.6775 16.9575
831 1 13.3875 0.8925 16.9575
832 1 13.3875 2.6775 15.1725
833 1 14.28 0 14.28
834 1 14.28 1.785 16.065
835 1 16.065 0 16.065
836 1 16.065 1.785 14.28
837 1 15.1725 0.8925 15.1725
838 1 15.1725 2.6775 16.9575
839 1 16.9575 0.8925 16.9575
840 1 16.9575 2.6775 15.1725
859 1 8.925 3.57 16.065
860 1 8.925 5.355 14.28
863 1 9.8175 4.4625 16.9575
864 1 9.8175 6.2475 15.1725
865 1 10.71 3.57 14.28
866 1 10.71 5.355 16.065
867 1 12.495 3.57 16.065
868 1 12.495 5.355 14.28
869 1 11.6025 4.4625 15.1725
870 1 11.6025 6.2475 16.9575
871 1 13.3875 4.4625 16.9575
872 1 13.3875 6.2475 15.1725
873 1 14.28 3.57 14.28
874 1 14.28 5.355 16.065
875 1 16.065 3.57 16.065
876 1 16.065 5.355 14.28
877 1 15.1725 4.4625 15.1725
878 1 15.1725 6.2475 16.9575
879 1 16.9575 4.4625 16.9575
880 1 16.9575 6.2475 15.1725
899 1 8.925 7.14 16.065
903 1 9.8175 8.0325 16.9575
905 1 10.71 7.14 14.28
907 1 12.495 7.14 16.065
909 1 11.6025 8.0325 15.1725
911 1 13.3875 8.0325 16.9575
913 1 14.28 7.14 14.28
915 1 16.065 7.14 16.065
917 1 15.1725 8.0325 15.1725
919 1 16.9575 8.0325 16.9575
482 1 0 8.925 8.925
486 1 0.8925 9.8175 9.8175
490 1 3.57 8.925 8.925
494 1 4.4625 9.8175 9.8175
498 1 7.14 8.925 8.925
502 1 8.0325 9.8175 9.8175
522 1 0 12.495 8.925
523 1 1.785 10.71 8.925
526 1 0.8925 13.3875 9.8175
527 1 2.6775 11.6025 9.8175
530 1 3.57 12.495 8.925
531 1 5.355 10.71 8.925
534 1 4.4625 13.3875 9.8175
535 1 6.2475 11.6025 9.8175
538 1 7.14 12.495 8.925
542 1 8.0325 13.3875 9.8175
562 1 0 16.065 8.925
563 1 1.785 14.28 8.925
566 1 0.8925 16.9575 9.8175
567 1 2.6775 15.1725 9.8175
570 1 3.57 16.065 8.925
571 1 5.355 14.28 8.925
574 1 4.4625 16.9575 9.8175
575 1 6.2475 15.1725 9.8175
578 1 7.14 16.065 8.925
582 1 8.0325 16.9575 9.8175
682 1 0 8.925 12.495
684 1 1.785 8.925 10.71
686 1 0.8925 9.8175 13.3875
688 1 2.6775 9.8175 11.6025
690 1 3.57 8.925 12.495
692 1 5.355 8.925 10.71
694 1 4.4625 9.8175 13.3875
696 1 6.2475 9.8175 11.6025
698 1 7.14 8.925 12.495
702 1 8.0325 9.8175 13.3875
721 1 0 10.71 10.71
722 1 0 12.495 12.495
723 1 1.785 10.71 12.495
724 1 1.785 12.495 10.71
725 1 0.8925 11.6025 11.6025
726 1 0.8925 13.3875 13.3875
727 1 2.6775 11.6025 13.3875
728 1 2.6775 13.3875 11.6025
729 1 3.57 10.71 10.71
730 1 3.57 12.495 12.495
731 1 5.355 10.71 12.495
732 1 5.355 12.495 10.71
733 1 4.4625 11.6025 11.6025
734 1 4.4625 13.3875 13.3875
735 1 6.2475 11.6025 13.3875
736 1 6.2475 13.3875 11.6025
737 1 7.14 10.71 10.71
738 1 7.14 12.495 12.495
741 1 8.0325 11.6025 11.6025
742 1 8.0325 13.3875 13.3875
761 1 0 14.28 10.71
762 1 0 16.065 12.495
763 1 1.785 14.28 12.495
764 1 1.785 16.065 10.71
765 1 0.8925 15.1725 11.6025
766 1 0.8925 16.9575 13.3875
767 1 2.6775 15.1725 13.3875
768 1 2.6775 16.9575 11.6025
769 1 3.57 14.28 10.71
770 1 3.57 16.065 12.495
771 1 5.355 14.28 12.495
772 1 5.355 16.065 10.71
773 1 4.4625 15.1725 11.6025
774 1 4.4625 16.9575 13.3875
775 1 6.2475 15.1725 13.3875
776 1 6.2475 16.9575 11.6025
777 1 7.14 14.28 10.71
778 1 7.14 16.065 12.495
781 1 8.0325 15.1725 11.6025
782 1 8.0325 16.9575 13.3875
882 1 0 8.925 16.065
884 1 1.785 8.925 14.28
886 1 0.8925 9.8175 16.9575
888 1 2.6775 9.8175 15.1725
890 1 3.57 8.925 16.065
892 1 5.355 8.925 14.28
894 1 4.4625 9.8175 16.9575
896 1 6.2475 9.8175 15.1725
898 1 7.14 8.925 16.065
902 1 8.0325 9.8175 16.9575
921 1 0 10.71 14.28
922 1 0 12.495 16.065
923 1 1.785 10.71 16.065
924 1 1.785 12.495 14.28
925 1 0.8925 11.6025 15.1725
926 1 0.8925 13.3875 16.9575
927 1 2.6775 11.6025 16.9575
928 1 2.6775 13.3875 15.1725
929 1 3.57 10.71 14.28
930 1 3.57 12.495 16.065
931 1 5.355 10.71 16.065
932 1 5.355 12.495 14.28
933 1 4.4625 11.6025 15.1725
934 1 4.4625 13.3875 16.9575
935 1 6.2475 11.6025 16.9575
936 1 6.2475 13.3875 15.1725
937 1 7.14 10.71 14.28
938 1 7.14 12.495 16.065
941 1 8.0325 11.6025 15.1725
942 1 8.0325 13.3875 16.9575
961 1 0 14.28 14.28
962 1 0 16.065 16.065
963 1 1.785 14.28 16.065
964 1 1.785 16.065 14.28
965 1 0.8925 15.1725 15.1725
966 1 0.8925 16.9575 16.9575
967 1 2.6775 15.1725 16.9575
968 1 2.6775 16.9575 15.1725
969 1 3.57 14.28 14.28
970 1 3.57 16.065 16.065
971 1 5.355 14.28 16.065
972 1 5.355 16.065 14.28
973 1 4.4625 15.1725 15.1725
974 1 4.4625 16.9575 16.9575
975 1 6.2475 15.1725 16.9575
976 1 6.2475 16.9575 15.1725
977 1 7.14 14.28 14.28
978 1 7.14 16.065 16.065
981 1 8.0325 15.1725 15.1725
982 1 8.0325 16.9575 16.9575
506 1 10.71 8.925 8.925
510 1 11.6025 9.8175 9.8175
514 1 14.28 8.925 8.925
518 1 15.1725 9.8175 9.8175
539 1 8.925 10.71 8.925
543 1 9.8175 11.6025 9.8175
546 1 10.71 12.495 8.925
547 1 12.495 10.71 8.925
550 1 11.6025 13.3875 9.8175
551 1 13.3875 11.6025 9.8175
554 1 14.28 12.495 8.925
555 1 16.065 10.71 8.925
558 1 15.1725 13.3875 9.8175
559 1 16.9575 11.6025 9.8175
579 1 8.925 14.28 8.925
583 1 9.8175 15.1725 9.8175
586 1 10.71 16.065 8.925
587 1 12.495 14.28 8.925
590 1 11.6025 16.9575 9.8175
591 1 13.3875 15.1725 9.8175
594 1 14.28 16.065 8.925
595 1 16.065 14.28 8.925
598 1 15.1725 16.9575 9.8175
599 1 16.9575 15.1725 9.8175
700 1 8.925 8.925 10.71
704 1 9.8175 9.8175 11.6025
706 1 10.71 8.925 12.495
708 1 12.495 8.925 10.71
710 1 11.6025 9.8175 13.3875
712 1 13.3875 9.8175 11.6025
714 1 14.28 8.925 12.495
716 1 16.065 8.925 10.71
718 1 15.1725 9.8175 13.3875
720 1 16.9575 9.8175 11.6025
739 1 8.925 10.71 12.495
740 1 8.925 12.495 10.71
743 1 9.8175 11.6025 13.3875
744 1 9.8175 13.3875 11.6025
745 1 10.71 10.71 10.71
746 1 10.71 12.495 12.495
747 1 12.495 10.71 12.495
748 1 12.495 12.495 10.71
749 1 11.6025 11.6025 11.6025
750 1 11.6025 13.3875 13.3875
751 1 13.3875 11.6025 13.3875
752 1 13.3875 13.3875 11.6025
753 1 14.28 10.71 10.71
754 1 14.28 12.495 12.495
755 1 16.065 10.71 12.495
756 1 16.065 12.495 10.71
757 1 15.1725 11.6025 11.6025
758 1 15.1725 13.3875 13.3875
759 1 16.9575 11.6025 13.3875
760 1 16.9575 13.3875 11.6025
779 1 8.925 14.28 12.495
780 1 8.925 16.065 10.71
783 1 9.8175 15.1725 13.3875
784 1 9.8175 16.9575 11.6025
785 1 10.71 14.28 10.71
786 1 10.71 16.065 12.495
787 1 12.495 14.28 12.495
788 1 12.495 16.065 10.71
789 1 11.6025 15.1725 11.6025
790 1 11.6025 16.9575 13.3875
791 1 13.3875 15.1725 13.3875
792 1 13.3875 16.9575 11.6025
793 1 14.28 14.28 10.71
794 1 14.28 16.065 12.495
795 1 16.065 14.28 12.495
796 1 16.065 16.065 10.71
797 1 15.1725 15.1725 11.6025
798 1 15.1725 16.9575 13.3875
799 1 16.9575 15.1725 13.3875
800 1 16.9575 16.9575 11.6025
900 1 8.925 8.925 14.28
904 1 9.8175 9.8175 15.1725
906 1 10.71 8.925 16.065
908 1 12.495 8.925 14.28
910 1 11.6025 9.8175 16.9575
912 1 13.3875 9.8175 15.1725
914 1 14.28 8.925 16.065
916 1 16.065 8.925 14.28
918 1 15.1725 9.8175 16.9575
920 1 16.9575 9.8175 15.1725
939 1 8.925 10.71 16.065
940 1 8.925 12.495 14.28
943 1 9.8175 11.6025 16.9575
944 1 9.8175 13.3875 15.1725
945 1 10.71 10.71 14.28
946 1 10.71 12.495 16.065
947 1 12.495 10.71 16.065
948 1 12.495 12.495 14.28
949 1 11.6025 11.6025 15.1725
950 1 11.6025 13.3875 16.9575
951 1 13.3875 11.6025 16.9575
952 1 13.3875 13.3875 15.1725
953 1 14.28 10.71 14.28
954 1 14.28 12.495 16.065
955 1 16.065 10.71 16.065
956 1 16.065 12.495 14.28
957 1 15.1725 11.6025 15.1725
958 1 15.1725 13.3875 16.9575
959 1 16.9575 11.6025 16.9575
960 1 16.9575 13.3875 15.1725
979 1 8.925 14.28 16.065
980 1 8.925 16.065 14.28
983 1 9.8175 15.1725 16.9575
984 1 9.8175 16.9575 15.1725
985 1 10.71 14.28 14.28
986 1 10.71 16.065 16.065
987 1 12.495 14.28 16.065
988 1 12.495 16.065 14.28
989 1 11.6025 15.1725 15.1725
990 1 11.6025 16.9575 16.9575
991 1 13.3875 15.1725 16.9575
992 1 13.3875 16.9575 15.1725
993 1 14.28 14.28 14.28
994 1 14.28 16.065 16.065
995 1 16.065 14.28 16.065
996 1 16.065 16.065 14.28
997 1 15.1725 15.1725 15.1725
998 1 15.1725 16.9575 16.9575
999 1 16.9575 15.1725 16.9575
1000 1 16.9575 16.9575 15.1725
ITEM: TIMESTEP
100
ITEM: NUMBER OF ATOMS
1000
ITEM: BOX BOUNDS pp pp pp
0.0000000000000000e+00 1.7849999999999998e+01
0.0000000000000000e+00 1.7849999999999998e+01
0.0000000000000000e+00 1.7849999999999998e+01
ITEM: ATOMS id type x y z
1 1 0.0169952 0.215587 0.0104069
2 1 0.0174545 2.25558 1.80026
3 1 1.80245 0.470587 1.80026
4 1 1.80201 2.00052 0.0103136
5 1 0.880294 1.2485 0.908142
6 1 0.884988 3.23211 2.68834
7 1 2.66999 1.44712 2.68834
8 1 2.66527 3.0335 0.908207
9 1 3.587 0.215571 0.010357
10 1 3.58745 2.25556 1.80027
11 1 5.37245 0.470591 1.80028
12 1 5.37202 2.00049 0.0103259
13 1 4.4503 1.2485 0.90817
14 1 4.45498 3.23212 2.68834
15 1 6.23998 1.44712 2.68834
16 1 6.23527 3.0335 0.908178
17 1 7.15699 0.215522 0.0103123
18 1 7.15743 2.25555 1.80027
21 1 8.02026 1.2485 0.908202
22 1 8.02499 3.23212 2.68834
41 1 0.0170215 3.78548 0.0103266
42 1 0.0174236 5.82558 1.80026
43 1 1.80243 4.04055 1.80027
44 1 1.80197 5.57062 0.0103873
45 1 0.880268 4.81849 0.908176
46 1 0.884992 6.80212 2.68833
47 1 2.66999 5.01712 2.68833
48 1 2.66527 6.6035 0.908184
49 1 3.587 3.78559 0.0104131
50 1 3.58745 5.82558 1.80025
51 1 5.37243 4.04058 1.80026
52 1 5.37201 5.5705 0.0103206
53 1 4.45028 4.8185 0.908153
54 1 4.45498 6.80212 2.68834
55 1 6.23999 5.01711 2.68834
56 1 6.23528 6.6035 0.908187
57 1 7.15697 3.78563 0.0104046
58 1 7.15746 5.82556 1.80027
61 1 8.02029 4.8185 0.908172
62 1 8.02498 6.80212 2.68834
81 1 0.0169948 7.35551 0.0102972
83 1 1.80245 7.61055 1.80026
85 1 0.880274 8.38849 0.908194
87 1 2.66998 8.58712 2.68834
89 1 3.58701 7.35554 0.0103719
91 1 5.37243 7.61057 1.80027
93 1 4.45029 8.3885 0.90814
95 1 6.23999 8.58712 2.68834
97 1 7.15697 7.35563 0.0104007
101 1 8.02028 8.38851 0.908162
201 1 -0.00513964 0.595488 3.57396
202 1 -0.00111374 2.36093 5.34369
203 1 1.78389 0.575926 5.34369
204 1 1.77986 2.38049 3.57395
205 1 0.889512 1.49235 4.46007
206 1 0.905456 3.18861 6.22957
207 1 2.69046 1.40361 6.22957
208 1 2.67451 3.27735 4.46007
209 1 3.56486 0.595489 3.57396
210 1 3.56889 2.36093 5.34369
211 1 5.35389 0.575927 5.34369
212 1 5.34986 2.38049 3.57395
213 1 4.45951 1.49235 4.46007
214 1 4.47546 3.18861 6.22957
215 1 6.26046 1.40361 6.22957
216 1 6.24451 3.27735 4.46007
217 1 7.13486 0.595496 3.57395
218 1 7.13889 2.36093 5.34369
221 1 8.02951 1.49235 4.46007
222 1 8.04546 3.18861 6.22957
241 1 -0.00513487 4.16549 3.57395
242 1 -0.00111312 5.93093 5.34369
243 1 1.78389 4.14593 5.34369
244 1 1.77986 5.95049 3.57395
245 1 0.889513 5.06235 4.46007
246 1 0.905456 6.75861 6.22957
247 1 2.69046 4.97361 6.22957
248 1 2.67451 6.84735 4.46007
249 1 3.56486 4.16549 3.57395
250 1 3.56889 5.93093 5.34369
251 1 5.35389 4.14593 5.34369
252 1 5.34986 5.95049 3.57396
253 1 4.45951 5.06235 4.46007
254 1 4.47546 6.75861 6.22957
255 1 6.26046 4.97361 6.22957
256 1 6.24451 6.84735 4.46007
257 1 7.13486 4.16549 3.57396
258 1 7.13889 5.93093 5.34369
261 1 8.02951 5.06235 4.46007
262 1 8.04546 6.75861 6.22957
281 1 -0.00513425 7.7355 3.57394
283 1 1.78388 7.71592 5.34369
285 1 0.88951 8.63235 4.46007
287 1 2.69046 8.54361 6.22957
289 1 3.56486 7.73548 3.57396
291 1 5.35389 7.71593 5.34369
293 1 4.45951 8.63235 4.46007
295 1 6.26046 8.54361 6.22957
297 1 7.13486 7.73549 3.57395
301 1 8.02951 8.63235 4.46007
401 1 -0.016855 0.408421 7.12154
404 1 1.76815 2.19342 7.12154
405 1 0.901353 1.16595 8.0261
408 1 2.68635 2.95095 8.0261
409 1 3.55315 0.408421 7.12154
412 1 5.33815 2.19342 7.12154
413 1 4.47135 1.16595 8.0261
416 1 6.25635 2.95095 8.0261
417 1 7.12315 0.408421 7.12154
421 1 8.04135 1.16595 8.0261
441 1 -0.0168549 3.97842 7.12154
444 1 1.76814 5.76342 7.12154
445 1 0.901353 4.73595 8.0261
448 1 2.68635 6.52095 8.0261
449 1 3.55314 3.97842 7.12154
452 1 5.33815 5.76342 7.12154
453 1 4.47135 4.73595 8.0261
456 1 6.25635 6.52095 8.0261
457 1 7.12315 3.97842 7.12154
461 1 8.04135 4.73595 8.0261
481 1 -0.0168551 7.54842 7.12154
485 1 0.901353 8.30595 8.0261
489 1 3.55315 7.54842 7.12154
493 1 4.47135 8.30595 8.0261
497 1 7.12314 7.54842 7.12154
501 1 8.04135 8.30595 8.0261
19 1 8.94244 0.470551 1.80027
20 1 8.942 2.00058 0.0104127
23 1 9.80998 1.44712 2.68834
24 1 9.80529 3.0335 0.90814
25 1 10.727 0.215536 0.0103704
26 1 10.7274 2.25557 1.80026
27 1 12.5125 0.470564 1.80026
28 1 12.512 2.00062 0.0103979
29 1 11.5903 1.2485 0.908185
30 1 11.595 3.23212 2.68833
31 1 13.38 1.44713 2.68834