LAMMPS (23 Jun 2022)

units metal
dimension 3
boundary p p p

#
# read restart file from previous run

read_restart	restart_at300K.npt2 remap
Reading restart file ...
  restart file = 23 Jun 2022, LAMMPS = 23 Jun 2022
  restoring atom style atomic from restart
  triclinic box = (0.10231192 0.10231192 0.10231192) to (43.493688 43.493688 43.493688) with tilt (0 0 0)
  2 by 2 by 2 MPI processor grid
  pair style tersoff stores no restart info
  8000 atoms
  read_restart CPU = 0.400 seconds

#
# Read Potentials
#

pair_style	tersoff
pair_coeff      * * ./SiC.tersoff C Si
Reading tersoff potential file ./SiC.tersoff with DATE: 2011-04-26

mass 1   12.0107
mass 2   28.0855

#
# T0 is temperature at which we got the restart file from
# P0 is pressure which we got from the restart file
#
variable T0		equal 300
variable T1		equal 300
variable T2		equal 300
variable P0		equal 1
variable P1		equal 1
variable P2		equal 2500

variable step_ramp	equal 500
variable step_relax	equal 1500
variable step_equi      equal 8000
variable step_cont	equal 1000
variable step_begp	equal 1000
variable thermo_step	equal 100

variable vstep  equal           "step"
variable vpe    equal           "pe"
variable vtemp  equal           "temp"
variable venth  equal        "enthalpy"
variable vvol   equal           "vol"
variable vlx	equal		"lx"
variable vly	equal		"ly"
variable vlz	equal		"lz"
variable vpress equal           "press"
variable vte	equal		"etotal"
variable vke    equal		"ke"

variable vpxx	equal		"pxx"
variable vpyy   equal           "pyy"
variable vpzz   equal           "pzz"
variable vpxy   equal           "pxy"
variable vpxz   equal           "pxz"
variable vpyz   equal           "pyz"

# Initialized with RESTART file
# Potentials read already
#

timestep 	0.001 # fs

# perform continuation run first

thermo          100
thermo_style    custom step temp ke pe etotal enthalpy vol lx press pxx pyy pzz pxy pxz pyz atoms
fix cont        all npt temp ${T0} ${T0} 0.1 iso ${P0} ${P0} 1.
fix cont        all npt temp 300 ${T0} 0.1 iso ${P0} ${P0} 1.
fix cont        all npt temp 300 300 0.1 iso ${P0} ${P0} 1.
fix cont        all npt temp 300 300 0.1 iso 1 ${P0} 1.
fix cont        all npt temp 300 300 0.1 iso 1 1 1.
fix cnt_out     all print 10 "${vstep} ${vtemp} ${vke} ${vpe} ${vte} ${venth} ${vvol} ${vlx} ${vpress} ${vpxx} ${vpyy} ${vpzz} ${vpxy} ${vpxz} ${vpyz}"                 file npt${T0}K${P0}bar.cnt  screen no
fix cnt_out     all print 10 "${vstep} ${vtemp} ${vke} ${vpe} ${vte} ${venth} ${vvol} ${vlx} ${vpress} ${vpxx} ${vpyy} ${vpzz} ${vpxy} ${vpxz} ${vpyz}"                 file npt300K${P0}bar.cnt  screen no
fix cnt_out     all print 10 "${vstep} ${vtemp} ${vke} ${vpe} ${vte} ${venth} ${vvol} ${vlx} ${vpress} ${vpxx} ${vpyy} ${vpzz} ${vpxy} ${vpxz} ${vpyz}"                 file npt300K1bar.cnt  screen no

run             ${step_cont}
run             1000
Unused restart file global fix info:
  fix style: npt, fix ID: npt2
Neighbor list info ...
  update every 1 steps, delay 10 steps, check yes
  max neighbors/atom: 2000, page size: 100000
  master list distance cutoff = 5
  ghost atom cutoff = 5
  binsize = 2.5, bins = 18 18 18
  1 neighbor lists, perpetual/occasional/extra = 1 0 0
  (1) pair tersoff, perpetual
      attributes: full, newton on
      pair build: full/bin/atomonly
      stencil: full/bin/3d
      bin: standard
Per MPI rank memory allocation (min/avg/max) = 3.123 | 3.134 | 3.143 Mbytes
   Step          Temp          KinEng         PotEng         TotEng        Enthalpy        Volume           Lx           Press           Pxx            Pyy            Pzz            Pxy            Pxz            Pyz          Atoms   
     12000   285.2377       294.92206     -49034.13      -48739.208     -48643.775      81697.783      43.391376      1871.5383      870.17021      1856.3251      2888.1197     -110.86215     -1063.617       143.42462           8000 
     12100   290.0279       299.8749      -49030.316     -48730.441     -48794.305      81777.734      43.405526     -1251.2259     -1240.8213     -1116.3117     -1396.5448      243.50262      412.54765     -2377.4792           8000 
     12200   292.85015      302.79297     -49023.269     -48720.476     -48773.441      81833.458      43.415383     -1036.9859     -658.64739     -423.41975     -2028.8906      56.220366      768.74198     -743.51796           8000 
     12300   299.78303      309.96123     -49021.266     -48711.305     -48751.764      81813.995      43.411941     -792.31932     -569.24026      43.914642     -1851.6323     -482.63745     -5.4852263     -1031.1651           8000 
     12400   302.47468      312.74427     -49018.028     -48705.284     -48661.356      81817.599      43.412578      860.21892      585.30679      1154.6006      840.74938     -1287.5798      156.48149     -2338.9374           8000 
     12500   300.27902      310.47406     -49014.419     -48703.945     -48604.525      81786.374      43.407055      1947.6175      1008.9147      1899.8428      2934.0951     -218.92455      1322.1702     -74.245062     System init for write_restart ...
0
2500
Setting up Verlet run ...
  Unit style    : metal
  Current step  : 0
  Time step     : 0.001
Per MPI rank memory allocation (min/avg/max) = 3.123 | 3.134 | 3.143 Mbytes
   Step          Temp          KinEng         PotEng         TotEng        Enthalpy        Volume           Lx           Press           Pxx            Pyy            Pzz            Pyz      
         0   299.40161      309.56686     -49013.986     -48704.419     -48729.198      81858.766      43.419858     -484.98673     -261.21647     -1186.6163     -7.1274808      1351.049     
       100   299.02591      309.17841     -49016.358     -48707.18      -48664.645      81804.228      43.410213      833.05186     -598.74941      1148.6087      1949.2963      251.14978    
       200   300.35327      310.55083     -49023.668     -48713.118     -48632.111      81763.447      43.402998      1587.3415      2122.5873      2261.3908      378.04635      414.89853    
       300   299.82512      310.00475     -49023.683     -48713.679     -48523.515      81701.005      43.391947      3729.1446      4350.9583      2995.54        3840.9356      1345.9162    
       400   297.75765      307.86709     -49019.442     -48711.575     -48536.556      81719.236      43.395174      3431.3937      3728.0069      3363.7754      3202.3988     -676.17513    
       500   300.64053      310.84785     -49020.121     -48709.273     -48555.074      81743.753      43.399513      3022.2935      3338.6677      3083.3644      2644.8484      24.302945    
Loop time of 1.91789 on 8 procs for 500 steps with 8000 atoms

Performance: 22.525 ns/day, 1.065 hours/ns, 260.703 timesteps/s
99.7% CPU use with 8 MPI tasks x no OpenMP threads

MPI task timing breakdown:
Section |  min time  |  avg time  |  max time  |%varavg| %total
---------------------------------------------------------------
Pair    | 1.8108     | 1.836      | 1.8606     |   1.1 | 95.73
Neigh   | 0          | 0          | 0          |   0.0 |  0.00
Comm    | 0.030554   | 0.055027   | 0.080172   |   6.5 |  2.87
Output  | 0.00013313 | 0.00015899 | 0.0003306  |   0.0 |  0.01
Modify  | 0.023403   | 0.023476   | 0.023549   |   0.0 |  1.22
Other   |            | 0.003211   |            |       |  0.17

Nlocal:           1000 ave        1011 max         983 min
Histogram: 1 0 0 0 0 4 0 
write_restart   restart_${T0}K${P0}bar.eql
write_restart   restart_300K${P0}bar.eql
write_restart   restart_300K1bar.eql
System init for write_restart ...

unfix           cont
unfix           cnt_out

reset_timestep  0

#
# LOOP OVER pressures to determine corresponding volumes (average out the volume data in sampling
# run output file (range of pressures 0.25 GPa to 2.System init for write_restart ...
Setting up Verlet run ...
  Unit style    : metal
  Current step  : 500
  Time step     : 0.001
Per MPI rank memory allocation (min/avg/max) = 3.123 | 3.134 | 3.143 Mbytes
   Step          Temp          KinEng         PotEng         TotEng        Enthalpy        Volume           Lx           Press           Pxx            Pyy            Pzz            Pyz      
       500   300.64053      310.84785     -49020.121     -48709.273     -48555.074      81743.753      43.399513      3022.2935      3338.6677      3083.3644      2644.8484      24.302945    
       600   301.30887      311.53888     -49021.549     -48710.01      -48584.275      81744.257      43.399602      2464.3874      2851.9073      3250.5783      1290.6767     -273.04693    
       700   292.70695      302.6449      -49017.183     -48714.538     -48560.385      81709.394      43.393432      3022.6745      3674.9289      3524.2073      1868.8873     -267.07041    
       800   295.58225      305.61783     -49024.892     -48719.275     -48593.246      81704.47       43.39256       2471.3472      2864.5711      2668.1345      1881.3361     -1553.0152    
       900   299.72685      309.90315     -49025.632     -48715.729     -48658.406      81733.081      43.397624      1123.6754      1081.2939      1691.5472      598.18504      733.5214     
      1000   299.96083      310.14507     -49020.259     -48710.114     -48670.259      81771.787      43.404474      780.87868      712.3691       1203.1633      427.10362     -29.550254    
      1100   302.15082      312.40941     -49022.133     -48709.724     -48526.668      81736.593      43.398246      3588.1983      4960.1987      3465.4603      2338.9358      2497.9257    
      1200   301.45618      311.69119     -49022.737     -48711.046     -48481.076      81699.605      43.391699      4509.8347      4492.6789      4600.4553      4436.37       -917.34267    
      1300   298.23782      308.36356     -49022.631     -48714.267     -48496.317      81706.556      43.392929      4273.7637      4849.6951      3949.9204      4021.6756      968.95159    
      1400   297.56615      307.66909     -49025.2       -48717.531     -48774.48       81780.475      43.406011     -1115.6957     -1921.2792     -1086.1361     -339.67167      153.23699    
      1500   298.20506      308.32969     -49024.822     -48716.492     -48761.9        81788.155      43.40737      -889.49987     -899.93604     -863.54324     -905.02033     -706.22976    
      1600   301.55584      311.79423     -49020.905     -48709.111     -48418.297      81699.274      43.39164       5703.0455      6102.8832      6652.9714      4353.282       176.43637    
      1700   302.04515      312.30016     -49019.286     -48706.986     -48419.233      81691.782      43.390314      5643.5563      5455.2228      5853.9135      5621.5327      859.61526    
      1800   301.55634      311.79475     -49021.508     -48709.714     -48610.691      81771.071      43.404347      1940.1983      1828.2872      1693.6364      2298.6713     -195.93901    
      1900   295.43508      305.46566     -49021.005     -48715.539     -48697.326      81779.812      43.405894      356.82087     -534.88224      1185.0247      420.32014     -363.02632    
      2000   298.38922      308.5201      -49025.335     -48716.815     -48575.491      81733.89       43.397768      2770.2785      1955.4178      2333.9028      4021.5149      3.9337004    
Loop time of 5.78727 on 8 procs for 1500 steps with 8000 atoms

Performance: 22.394 ns/day, 1.072 hours/ns, 259.190 timesteps/s
99.7% CPU use with 8 MPI tasks x no OpenMP threads

MPI task timing breakdown:
Section |  min time  |  avg time  |  max time  |%varavg| %total
---------------------------------------------------------------
Pair    | 5.4787     | 5.5222     | 5.6309     |   2.2 | 95.42
Ne
write_restart   restart_${T0}K${P2}bar.rmp
write_restart   restart_300K${P2}bar.rmp
write_restart   restart_300K2500bar.rmp
System init for write_restart ...

unfix           ramp
unfix           rmp_out

#
# settle at P2
#

fix relax       all npt temp ${T0} ${T0} 0.1 iso ${P2} ${P2} 1.
fix relax       all npt temp 300 ${T0} 0.1 iso ${P2} ${P2} 1.
fix relax       all npt temp 300 300 0.1 iso ${P2} ${P2} 1.
fix relax       all npt temp 300 300 0.1 iso 2500 ${P2} 1.
fix relax       all npt temp 300 300 0.1 iso 2500 2500 1.
fix rlx_out     all print 10 "${vstep} ${vtemp} ${vke} ${vpe} ${vte} ${venth} ${vvol} ${vlx} ${vpress} ${vpxx} ${vpyy} ${vpzz} ${vpyz}"                 file npt${T0}K${P2}bar.rlx  screen no
fix rlx_out     all print 10 "${vstep} ${vtemp} ${vkeSystem init for write_restart ...
Setting up Verlet run ...
  Unit style    : metal
  Current step  : 0
  Time step     : 0.001
Per MPI rank memory allocation (min/avg/max) = 3.123 | 3.134 | 3.143 Mbytes
   Step          Temp          KinEng         PotEng         TotEng        Enthalpy        Volume           Lx           Press           Pxx            Pyy            Pzz            Pyz      
         0   298.38922      308.5201      -49025.335     -48716.815     -48575.491      81733.89       43.397768      2770.2785      1955.4178      2333.9028      4021.5149      3.9337004    
       100   298.36322      308.49322     -49022.115     -48713.622     -48560.079      81727.146      43.396574      3010.0414      2391.8229      2726.9254      3911.376      -408.18997    
       200   303.36463      313.66444     -49021.616     -48707.951     -48551.789      81728.947      43.396893      3061.3224      3606.5651      2981.929       2595.4731      930.19811    
       300   303.06309      313.35265     -49021.162     -48707.81      -48548.413      81750.76       43.400753      3123.9105      2939.5552      2655.2425      3776.9339      904.28877    
       400   298.39824      308.52943     -49018.718     -48710.189     -48599.235      81779.509      43.40584       2173.7372      1752.571       2748.3117      2020.329       57.058728    
       500   297.84792      307.96042     -49020.712     -48712.751     -48648.852      81765.792      43.403413      1252.0902      2109.6379      165.84677      1480.7859     -217.90005    
       600   296.27576      306.33489     -49020.605     -48714.27      -48513.675      81708.791      43.393325      3933.3499      2981.3865      4054.2837      4764.3796     -1561.6408    
       700   302.9948       313.28205     -49027.854     -48714.572     -48512.306      81691.557      43.390274      3966.9505      3644.0075      4467.9542      3788.8898     -446.97028    
       800   299.7473       309.92429     -49020.693     -48710.769     -48522.686      81709.957      43.393531      3687.9502      3255.4071      3930.8659      3877.5777     -1350.6024    
       900   302.68693      312.96373     -49019.622     -48706.658     -48640.957      81772.062      43.404522      1287.294       1626.4178      1053.1755      1182.2889     -865.07483    
      1000   301.20932      311.43595     -49018.203     -48706.767     -48634.532      81772.138      43.404536      1415.3197      1988.7922      1748.5342      508.6326       222.49648    
      1100   299.02179      309.17415     -49021.969     -48712.794     -48533.423      81714.082      43.394262      3516.9478      3992.9489      2730.311       3827.5837     -423.42046    
      1200   299.66605      309.84029     -49025.42      -48715.579     -48546.39       81697.475      43.391322      3317.9932      3045.8951      3350.2384      3557.8461      342.19955    
      1300   296.31226      306.37263     -49020.226     -48713.854     -48641.842      81752.014      43.400975      1411.2911      1227.1221      1598.3345      1408.4168      97.461229    
      1400   299.06479      309.21861     -49020.376     -48711.158     -48696.853      81782.259      43.406327      280.24457     -477.58235      1048.0362      270.27991      1273.491     
      1500   301.36497      311.59688     -49021.242     -48709.645     -48556.019      81747.513      43.400179      3010.9337      3383.7729      3533.4188      2115.6094      27.834523    
      1600   299.93226      310.11553     -49019.627     -48709.511     -48498.222      81694.724      43.390835      4143.7596      3513.2855      4513.1891      4404.804      -879.80699    
      1700   299.85362      310.03422     -49020.368     -48710.334     -48570.472      81724.734      43.396147      2741.9358      1384.7026      3143.039       3698.0658      1223.3995    
      1800   299.64845      309.82209     -49020.716     -48710.894     -48647.846      81772.729      43.404641      1235.3024      496.4439       1826.4956      1382.9677      332.81096    
      1900   296.77789      306.85406     -49018.088     -48711.234     -48705.504      81797.833      43.409082      112.21993     -526.91095      818.69821      44.87252       231.94923    
      2000   300.30613      310.5021      -49021.702     -48711.2       -48533.595      81693.465      43.390612      3483.1958      2398.7386      3866.7764      4184.0724     -344.37828    
      2100   301.53923      311.77706     -49024.113     -48712.336     -48389.963      81680.493      43.388315      6323.3835      6568.6054      6796.48        5605.0651      988.30392    
      2200   295.78726      305.8298      -49020.026     -48714.197     -48559.901      81761.169      43.402595      3023.5471      2511.2013      4002.0466      2557.3935      161.58561    
      2300   295.98174      306.03088     -49019.529     -48713.498     -4
write_restart   restart_${T0}K${P2}bar.rlx
write_restart   restart_300K${P2}bar.rlx
write_restart   restart_300K2500bar.rlx
System init for write_restart ...

unfix           relax
unfix           rlx_out

#
# Run at P2 for equilibrium data
#

reset_timestep  0

fix equi        all npt temp ${T0} ${T0} 0.1 iso ${P2} ${P2} 1.
fix equi        all npt temp 300 ${T0} 0.1 iso ${P2} ${P2} 1.
fix equi        all npt temp 300 300 0.1 iso ${P2} ${P2} 1.
fix equi        all npt temp 300 300 0.1 iso 2500 ${P2} 1.
fix equi        all npt temp 300 300 0.1 iso 2500 2500 1.
fix eq_out      all print 10 "${vstep} ${vtemp} ${vke} ${vpe} ${vte} ${venth} ${vvol} ${vlx} ${vpress} ${vpxx} ${vpyy} ${vpzz} ${vpyz}"                 file npt${T0}K${P2}bar.eql  screen no
fix eq_out      all print 10 "${vstep} ${vtemp} ${vke} ${vpe} ${vte} ${venth} ${vvol} ${vlx} ${vpress} ${vpxx} ${vpyy} ${vpzz} ${vpyz}"                 file npt300K${P2}bar.eql  screen no
fix eq_out      all print 10 "${vstep} ${vtemp} ${vke} ${vpe} ${vte} ${venth} ${vvol} ${vlx} ${vpress} ${vpxx} ${vpyy} ${vpzz} ${vpyz}"                 file npt300K2500bar.eql  screen no

run             ${step_equi}
run             8000
Per MPI rank memory allocation (min/avg/max) = 3.123 | 3.134 | 3.143 Mbytes
   Step          Temp          KinEng         PotEng         TotEng        Enthalpy        Volume           Lx           Press           Pxx            Pyy            Pzz            Pyz      
         0   298.38922      308.5201      -49025.335     -48716.815     -48575.491      81733.89       43.397768      2770.2785      1955.4178      2333.9028      4021.5149      3.9337004    
       100   298.36322      308.49322     -49022.115     -48713.622     -48560.079      81727.146      43.396574      3010.0414      2391.8229      2726.9254      3911.376      -408.18997    
       200   303.36463      313.66444     -49021.616     -48707.951     -48551.789      81728.947      43.396893      3061.3224      3606.5651      2981.929       2595.4731      930.19811    
       300   303.06309      313.35265     -49021.162     -48707.81      -48548.413      81750.76       43.400753      3123.9105      2939.5552      2655.2425      3776.9339      904.28877    
       400   298.39824      308.52943     -49018.718     -48710.189     -48599.235      81779.509      43.40584       2173.7372      1752.571       2748.3117      2020.329       57.058728    
       500       3600   302.3191       312.58341     -49020.734     -48708.151     -48691.235      81771.511      43.404425      331.43665      276.04211      216.33811      501.92973      431.72742    
      3700   302.72231      313.00031     -49023.436     -48710.435     -48563.872      81722.275      43.395712      2873.398       2664.2852      3106.9385      2848.9702      230.57992    
      3800   297.08548      307.17209     -49024.665     -48717.493     -48496.834      81687.723      43.389595      4327.8666      3943.6111      4605.6129      4434.3757     -7.4111777    
      3900   297.03814      307.12315     -49024.861     -48717.738     -48719.111      81752.224      43.401012     -26.912069     -401.11253      406.23556     -85.859239      928.71247    
      4000   298.62706      308.76602     -49023.02      -48714.254     -48655.083      81772.452      43.404591      1159.3504      372.96185      1520.4197      1584.6697      197.71188    
      4100   302.95638      313.24232     -49024.769     -48711.526     -48555.649      81699.66       43.391708      3056.8491      3330.4569      2642.3361      3197.7543     -273.76586    
      4200   299.99921      310.18476     -49020.363     -48710.179     -48534.574      81733.293      43.397662      3442.2949      3290.1912      3114.6172      3922.0764      63.576241    
      4300   299.40573      309.57113     -49019.312     -48709.741     -48662.205      81764.04       43.403103      931.48236      1470.7295      725.43716      598.28043      399.69977    
      4400   296.22736      306.28485     -49017.144     -48710.859     -48650.574      81759.738      43.402342      1181.364      -34.938649      1390.803       2188.2276     -1236.5982    
      4500   297.14909      307.23787     -49021.622     -48714.384     -48559.108      81759.865      43.402364      3042.8136      3161.2823      3413.6083      2553.5502      205.62802    
      4600   294.31917      304.31187     -49020.274     -48715.962     -48543.94       81710.867      43.393692      3372.995       3959.6782      2893.3561      3265.9506      197.80082    
      4700   298.14115      308.26361     -49020.402     -48712.139     -48503.243      81712.295      43.393945      4095.9328      4490.8367      4354.7363      3442.2254     -697.27188    
      4800   303.93998      314.25932     -49020.932     -48706.673     -48559.268      81737.021      43.398322      2889.3683      1904.2445      4033.4258      2730.4346     -1177.1037    
      4900   302.15277      312.41143     -49019.287     -48706.875     -48597.706      81756.328      43.401738      2139.3819      2207.9384      2584.2711      1625.9362     -57.938686    
      5000   298.272        308.3989      -49018.211     -48709.812     -48604.891      81754.23       43.401367      2056.187       2732.7119      1836.2549      1599.5943      1934.9162    
      5100   299.46151      309.6288      -49021.117     -48711.488     -48585.774      81733.763      43.397745      2464.2963      1448.3236      2619.4456      3325.1196      149.73675    
      5200   299.75201      309.92916     -49021.472     -48711.543     -48522.111      81721.192      43.39552       3713.8863      3301.7781      3519.444       4320.4369      283.76924    
      5300   300.07152      310.25952     -49021.428     -48711.169     -48623.405      81723.238      43.395882      1720.596       1738.7224      459.04029      2964.0254     -207.38191    
      5400   300.4893       310.69149     -49020.36      -48709.669     -48698.039      81817.023      43.412476      227.73291      1546.9788     -727.04724     -136.73288     -42.340197    
      5500   299.93631      310.11972     -49015.812     -48705.692     -48552.878      81768.357      43.403867      2994.2638      2711.5556      3378.5864      2892.6494      536.09527    
      5600   304.00194      314.32338     -49019.34      -48705.017     -48499.449      81701.932      43.392111      4031.1979      3794.8253      4150.285       4148.4833      147.92847    
      5700   301.02634      311.24676     -49022.595     -48711.349     -48550.658      81714.119      43.394268      3150.6774      4279.663       1594.9348      3577.4343     -424.20792    
      5800   298.00031      308.11799     -49022.677     -48714.559     -48602.715      81736.017      43.398144      2192.3479      2514.6079      2127.7591      1934.6767     -1385.2452    
      5900   299.69313      309.86829     -49023.162     -48713.294     -48666.55       81759.457      43.402292      915.99884      908.50251     -34.102375      1873.5964      619.27498    
      6000   302.41835      312.68603     -49022.289     -48709.603     -48644.561      81761.782      43.402704      1274.5459      1082.3472      2050.2246      691.06599     -1264.9113    
      6100   305.18697      315.54865     -49018.674     -48703.125     -48422.277      81698.1        43.391432      5507.6839      5662.3685      4431.6065      6429.0766      645.33526    
      6200   309.6216       320.13384     -49018.72      -48698.586     -48597.639      81743.289      43.399431      1978.5805      2440.7257      1466.1545      2028.8614      215.30402    
      6300   300.05427      310.24168     -49016.97      -48706.729     -48633.408      81793.959      43.408396      1436.1961      1333.2003      1037.8672      1937.5207      292.00555    
      6400   297.6722       307.77873     -49020.117     -48712.338     -48643.619      81788.793      43.407483      1346.1563      680.68296      1679.0433      1678.7426      1160.1174    
      6500   299.74383      309.9207      -49024.253     -48714.332     -48537.091      81684.005      43.388937      3476.4678      4305.4761      2695.1299      3428.7975     -404.35693    
      66004      308.31199     -49018.07      -48709.758     -48700.005      81795.748      43.408713      191.04221      510.00178      440.09182     -376.96696     -1123.7333    
      3600   302.3191       312.58341     -49020.734     -48708.151     -48691.235      81771.511      43.404425      331.43665      276.04211      216.33811      501.92973      431.72742    
      3700   302.72231      313.00031     -49023.436     -48710.435     -48563.872      81722.275      43.395712      2873.398       2664.2852      3106.9385      2848.9702      230.57992    
      3800   297.08548      307.17209     -49024.665     -48717.493     -48496.834      81687.723      43.389595      4327.8666      3943.6111      4605.6129      4434.3757     -7.4111777    
      3900   297.03814      307.12315     -49024.861     -48717.738     -48719.111      81752.224      43.401012     -26.912069     -401.11253      406.23556     -85.859239      928.71247    
      4000   298.62706      308.76602     -49023.02      -48714.254     -48655.083      81772.452      43.404591      1159.3504      372.96185      1520.4197      1584.6697      197.71188    
      4100   302.95638      313.24232     -49024.769     -48711.526     -48555.649      81699.66       43.391708      3056.8491      3330.4569      2642.3361      3197.7543     -273.76586    
      4200   299.99921      310.18476     -49020.363     -48710.179     -48534.574      81733.293      43.397662      3442.2949      3290.1912      3114.6172      3922.0764      63.576241    
      4300   299.40573      309.57113     -49019.312     -48709.741     -48662.205      81764.04       43.403103      931.48236      1470.7295      725.43716      598.28043      399.69977    
      4400   296.22736      306.28485     -49017.144     -48710.859     -48650.574      81759.738      43.402342      1181.364      -34.938649      1390.803       2188.2276     -1236.5982    
      4500   297.14909      307.23787     -49021.622     -48714.384     -48559.108      81759.865      43.402364      3042.8136      3161.2823      3413.6083      2553.5502      205.62802    
      4600   294.31917      304.31187     -49020.274     -48715.962     -48543.94       81710.867      43.393692      3372.995       3959.6782      2893.3561      3265.9506      197.80082    
      4700       7800   301.9239       312.17479     -49022.798     -48710.623     -48498.822      81701.853      43.392097      4153.4339      3945.971       4925.3054      3589.0253      630.69962    
      7900   304.71323      315.05882     -49023.251     -48708.192     -48402.042      81669.186      43.386313      6006.0286      4944.6969      6412.8871      6660.5018      1739.6272    
      8000   301.94241      312.19393     -49021.568     -48709.374     -48618.328      81767.232      43.403668      1783.9844      1973.1414      2275.8941      1102.9178      2063.0728    
Loop time of 30.7508 on 8 procs for 8000 steps with 8000 atoms

Performance: 22.477 ns/day, 1.068 hours/ns, 260.156 timesteps/s
99.7% CPU use with 8 MPI tasks x no OpenMP threads

MPI task timing breakdown:
Section |  min time  |  avg time  |  max time  |%varavg| %total
---------------------------------------------------------------
Pair    | 29.154     | 29.465     | 29.786     |   3.4 | 95.82
Neigh   | 0          | 0          | 0          |   0.0 |  0.00
Comm    | 0.53501    | 0.85424    | 1.1641     |  20.0 |  2.78
Output  | 0.0022667  | 0.0026456  | 0.0052025  |   1.9 |  0.01
Modify  | 0.3757     | 0.37728    | 0.38006    |   0.2 |  1.23
Other   |            | 0.05181    |            |       |  0.17

Nlocal:           1000 ave        1012 max         991 min
Histogram: 3 0 0 1 1 1 0 0 0 2
Nghost:           2060 ave        2069 max        2048 min
Histogram: 2 0 0 0 1 1 1 0 0 3
Neighs:              0 ave           0 max           0 min
Histogram: 8 0 0 0 0 0 0 0 0 0
FullNghs:        46000 ave       46552 max       45586 min
Histogram: 3 0 0 1 1 1 0 0 0 2

Total # of neighbors = 368000
Ave neighs/atom = 46
Neighbor list builds = 0
Dangerous builds = 0
System init for write_restart ...
2500
5000
Setting up Verlet run ...
  Unit style    : metal
  Current step  : 0
  Time step     : 0.001
Per MPI rank memory allocation (min/avg/max) = 3.123 | 3.134 | 3.143 Mbytes
   Step          Temp          KinEng         PotEng         TotEng        Enthalpy        Volume           Lx           Press           Pxx            Pyy            Pzz            Pyz      
         0   301.94241      312.19393     -49021.568     -48709.374     -48618.328      81767.232      43.403668      1783.9844      1973.1414      2275.8941      1102.9178      2063.0728    
       100   301.30439      311.53424     -49022.165     -48710.631     -48537.114      81729.133      43.396926      3401.5479      3306.5729      4646.2616      2251.8091      384.67353    
       200   300.07358      310.26165     -49026.523     -48716.261     -48509.403      81686.125      43.389312      4057.2702      3430.1464      4385.6595      4356.0046     -374.21249    
       300   298.60512      308.74333     -49028.763     -48720.02      -48438.976      81663.109      43.385237      5513.8861      6116.2653      5747.5088      4677.8841      300.66015    
       400   299.55317      309.72357     -49026.518     -48716.794     -48424.304      81653.011      43.383448      5739.1659      5315.9692      6180.4091      5721.1195      775.14466    
       500   298.51092      308.64593     -49022.647     -48714.001     -48501.762      81692.688      43.390474      4162.4775      3362.056       4536.8815      4588.4951      1466.9331    
Loop time of 1.92353 on 8 procs for 500 steps with 8000 atoms

Performance: 22.459 ns/day, 1.069 hours/ns, 259.938 timesteps/s
99.7% CPU use with 8 MPI tasks x no OpenMP threads

MPI task timing breakdown:
Section |  min time  |  avg time  |  max time  |%varavg| %total
---------------------------------------------------------------
Pair    | 1.8268     | 1.8429     | 1.86       |   0.9 | 95.81
Neigh   | 0          | 0          | 0          |   0.0 |  0.00
Comm    | 0.036883   | 0.053868   | 0.069714   |   5.5 |  2.80
Output  | 0.00013514 | 0.00015844 | 0.00031187 |   0.0 |  0.01
Modify  | 0.023315   | 0.023421   | 0.023502   |   0.0 |  1.22
Other   |            | 0.003233   |            |       |  0.17

Nlocal:           1000 ave        1008 max         990 min
Histogram: 1 0 0 1 1 1 2 0 1 1
Nghost:           2060 ave        2070 max        2052 min
Histogram: 1 1 0 2 0 2 1 0 0 1
Neighs:              0 ave           0 max           0 min
Histogram: 8 0 0 0 0 0 0 0 0 0
FullNghs:        46000 ave       46368 max       45540 min
Histogram: 1 0 0 1 1 1 2 0 1 1

Total # of neighbors = 368000
Ave neighs/atom = 46
Neighbor list builds = 0
Dangerous builds = 0
System init for write_restart ...
Setting up Verlet run ...
  Unit style    : metal
  Current step  : 500
  Time step     : 0.001
Per MPI rank memory allocation (min/avg/max) = 3.123 | 3.134 | 3.143 Mbytes
   Step          Temp          KinEng         PotEng         TotEng        Enthalpy        Volume           Lx           Press           Pxx            Pyy            Pzz            Pyz      
       500   298.51092      308.64593     -49022.647     -48714.001     -48501.762      81692.688      43.390474      4162.4775      3362.056       4536.8815      4588.4951      1466.9331    
       600   299.46778      309.63528     -49023.346     -48713.711     -48420.352      81674.311      43.38722       5754.7123      6071.989       5427.6444      5764.5036     -1096.891     
       700   303.79829      314.11282     -49026.218     -48712.105     -48379.696      81630.254      43.379418      6524.2628      6886.499       5460.3206      7225.9688     -704.76845    
       800   304.37588      314.71002     -49023.393     -48708.683     -48481.986      81677.708      43.387822      4446.8489      5290.4696      3835.7639      4214.3133      1481.0625    
       900   300.05266      310.24002     -49017.806     -48707.566     -48512.534      81727.621      43.396658      3823.3852      4587.9769      4235.8679      2646.3106      978.75056    
      1000   299.65145      309.82519     -49022.314     -48712.488     -48494.136      81682.815      43.388726      4282.9066      3879.2302      4352.7328      4616.7568     -871.64482    
      1100   301.4807       311.71654     -49028.561     -48716.845     -48562.194      81660.411      43.384759      3034.25        2814.1993      3218.9696      3069.5809     -17.270774    
      1200   295.62242      305.65936     -49021.624     -48715.964     -48378.313      81640.463      43.381226      6626.3393      7184.3076      6229.7054      6465.0051      1510.8863    
      1300   302.34434      312.6095      -49025.128     -48712.519     -48438.113      81678.822      43.388019      5382.6188      6186.9633      5958.1484      4002.7448      914.07703    
      1400   300.47014      310.67168     -49019.631     -48708.96      -48393.307      81671.604      43.386741      6192.2477      5628.5554      5617.5861      7330.6017      412.32227    
      1500   303.13124      313.42313     -49016.872     -48703.449     -48537.858      81706.242      43.392874      3247.0659      2970.8147      3649.8456      3120.5374      269.14869    
      1600   303.59779      313.90551     -49015.509     -48701.604     -48470.37       81725          43.396194      4533.2228      3799.1771      5147.4013      4653.0898     -383.78005    
      1700   302.64356      312.91888     -49022.062     -48709.143     -48501.557      81694.989      43.390881      4071.1093      4864.1446      2415.9038      4933.2795      281.97263    
      1800   298.7711       308.91495     -49022.121     -48713.207     -48440.577      81664.869      43.385548      5348.7061      4525.7914      6044.3545      5475.9724      953.73589    
      1900   298.79158      308.93612     -49024.66      -48715.724     -48421.238      81659.935      43.384675      5777.8386      5688.5521      6470.1093      5174.8542      2029.4181    
      2000   300.88993      311.10572     -49027.558     -48716.452     -48436.779      81647.474      43.382468      5488.0447      5065.1435      5163.5115      6235.4791      1815.2212    
Loop time of 5.80797 on 8 procs for 1500 steps with 8000 atoms

Performance: 22.314 ns/day, 1.076 hours/ns, 258.266 timesteps/s
99.7% CPU use with 8 MPI tasks x no OpenMP threads

MPI task timing breakdown:
Section |  min time  |  avg time  |  max time  |%varavg| %total
---------------------------------------------------------------
Pair    | 5.4971     | 5.5417     | 5.6495     |   2.2 | 95.42
Neigh   | 0          | 0          | 0          |   0.0 |  0.00
Comm    | 0.077831   | 0.18489    | 0.22944    |  12.0 |  3.18
Output  | 0.00040248 | 0.00047472 | 0.00093368 |   0.0 |  0.01
Modify  | 0.070066   | 0.07084    | 0.071692   |   0.2 |  1.22
Other   |            | 0.01008    |            |       |  0.17

Nlocal:           1000 ave        1020 max         988 min
Histogram: 2 0 2 2 0 0 0 0 1 1
Nghost:           2060 ave        2072 max        2040 min
Histogram: 1 1 0 0 0 0 2 2 0 2
Neighs:              0 ave           0 max           0 min
Histogram: 8 0 0 0 0 0 0 0 0 0
FullNghs:        46000 ave       46920 max       45448 min
Histogram: 2 0 2 2 0 0 0 0 1 1

Total # of neighbors = 368000
Ave neighs/atom = 46
Neighbor list builds = 0
Dangerous builds = 0
System init for write_restart ...
Setting up Verlet run ...
  Unit style    : metal
  Current step  : 0
  Time step     : 0.001
Per MPI rank memory allocation (min/avg/max) = 3.123 | 3.134 | 3.143 Mbytes
   Step          Temp          KinEng         PotEng         TotEng        Enthalpy        Volume           Lx           Press           Pxx            Pyy            Pzz            Pyz      
         0   300.88993      311.10572     -49027.558     -48716.452     -48436.779      81647.474      43.382468      5488.0447      5065.1435      5163.5115      6235.4791      1815.2212    
       100   298.79067      308.93518     -49023.792     -48714.857     -48530.987      81664.219      43.385433      3607.3627      4431.783       2140.9881      4249.317       1105.6904    
       200   301.91594      312.16655     -49020.685     -48708.518     -48517.968      81707.268      43.393055      3736.4607      4523.3453      2784.3323      3901.7046     -1102.3056    
       300   302.20417      312.46457     -49018.485     -48706.021     -48495.206      81727.141      43.396573      4132.802       3377.9634      4529.6621      4490.7804      361.7808     
       400   300.04342      310.23047     -49019.061     -48708.831     -48333.194      81657.53       43.384249      7370.2409      7287.5026      7203.0641      7620.1559      915.21528    
       500   302.26148      312.52384     -49023.764     -48711.24      -48292.443      81624.115      43.37833       8220.4368      6628.7808      8449.1364      9583.3932     -458.08975    
       600   298.01225      308.13033     -49022.578     -48714.448     -48538.554      81700.668      43.391887      3449.3419      3522.4774      3707.89        3117.6584     -889.37061    
       700   297.05271      307.13822     -49023.877     -48716.739     -48556.782      81736.622      43.398251      3135.4265      3621.3312      2980.3652      2804.5831     -804.91369    
       800   296.97894      307.06194     -49023.405     -48716.343     -48511.957      81665.7        43.385695      4009.7903      4052.7153      3883.9855      4092.6701      769.06812    
       900   302.75951      313.03877     -49023.767     -48710.729     -48388.465      81652.319      43.383326      6323.4249      6613.2239      5932.6451      6424.4058     -302.67779    
      1000   302.07091      312.3268      -49019.649     -48707.322     -48367.549      81654.338      43.383683      6666.8282      6322.8383      5641.0305      8036.6158     -192.80212    
      1100   302.51215      312.78302     -49022.909     -48710.126     -48552.775      81704.779      43.392615      3085.5528      3042.1743      3110.5922      3103.8918     -1311.9725    
      1200   297.1083       307.19569     -49023.497     -48716.302     -48550.642      81730.317      43.397135      3247.461       3037.7181      3519.6269      3185.0381      677.53769    
      1300   301.5259       311.76328     -49028.524     -48716.761     -48507.959      81650          43.382915      4097.2008      4971.4007      2804.4485      4515.7531      841.3364     
      1400   300.42511      310.62511     -49025.176     -48714.551     -48456.471      81650.261      43.382961      5064.1501      5381.3501      5073.4687      4737.6315     -854.43273    
      1500   297.10504      307.19232     -49019.113     -48711.921     -48508.571      81696.486      43.391146      3987.9618      4601.4497      3827.4416      3534.994      -13.971191    
      1600   302.13759      312.39574     -49022.033     -48709.637     -48514.446      81707.999      43.393185      3827.422       4238.2128      3730.1063      3513.9468      1367.2541    
      1700   305.08788      315.44619     -49022.036     -48706.59      -48451.383      81703.406      43.392372      5004.5245      3853.524       6124.2516      5035.798       683.68449    
      1800   302.73632      313.01479     -49021.097     -48708.082     -48459.038      81672.743      43.386943      4885.5017      4808.5565      5019.1193      4828.8294      599.42123    
      1900   299.20867      309.36737     -49023.355     -48713.987     -48381.281      81634.132      43.380104      6529.7967      6924.4079      6259.7287      6405.2533     -1581.9621    
      2000   297.9529       308.06897     -49024.615     -48716.546     -48370.175      81637.988      43.380787      6797.6695      7143.4039      5978.3952      7271.2096     -478.98724    
      2100   299.6918       309.8669      -49024.968     -48715.101     -48439.48       81682.518      43.388673      5406.224       5704.4194      4949.7973      5564.4552      1244.1784    
      2200   300.35104      310.54853     -49019.304     -48708.756     -48465.491      81688.077      43.389658      4771.2364      4214.3943      4520.6241      5578.6907     -1198.585     
      2300   305.61084      315.98691     -49021.782     -48705.795     -48500.487      81706.425      43.392906      4025.858       4193.5227      4032.4361      3851.6152     -984.33231    
      2400   304.14235      314.46856     -49023.23      -48708.761     -48423.538      81690.879      43.390154      5593.9823      6343.865       5028.1062      5409.9755     -821.72315    
      2500   303.84139      314.15738     -49025.537     -48711.38      -48418.192      81651.901      43.383252      5752.9436      5966.6891      4706.4205      6585.7213     -707.85181    
      2600   299.96724      310.15169     -49024.456     -48714.304     -48476.787      81671.619      43.386744      4659.4505      5759.8558      4361.3591      3857.1366     -1223.5127    
      2700   299.24707      309.40708     -49025.52      -48716.113     -48475.39       81694.746      43.390838      4720.9825      4358.5383      4210.9095      5593.4998     -800.06212    
      2800   301.86482      312.1137      -49026.47      -48714.356     -48420.399      81637.838      43.380761      5769.0257      5952.1265      6825.9762      4528.9744     -279.48831    
      2900   300.42568      310.6257      -49018.289     -48707.663     -48348.799      81628.59       43.379123      7043.6539      6380.0839      7400.0045      7350.8733     -1681.0617    
      3000   302.3646       312.63045     -49019.598     -48706.967     -48470.705      81692.546      43.390449      4633.6499      4686.93        4931.6574      4282.3623      873.18811    
      3100   297.45527      307.55444     -49019.957     -48712.402     -48548.321      81722.22       43.395702      3216.8367      2657.8368      3415.9921      3576.6814      1028.8968    
      3200   299.19372      309.35192     -49024.819     -48715.467     -48482.924      81654.508      43.383713      4562.8224      3774.9464      5007.0367      4906.4842      648.69552    
      3300   298.45725      308.59044     -49022.917     -48714.327     -48285.599      81596.632      43.373461      8418.209       7880.2819      8132.4377      9241.9074      252.23655    
      3400   300.00935      310.19524     -49022.698     -48712.503     -48369.174      81655.99       43.383976      6736.4736      6861.5379      6846.0387      6501.8441      417.77447    
      3500   300.21038      310.40309     -49019.691     -48709.288     -48488.226      81676.927      43.387683      4336.3525      5046.2222      4343.4819      3619.3535      1500.0583    
      3600   305.7298       316.10991     -49019.051     -48702.941     -48501.376      81693.536      43.390624      3953.1033      3428.8528      4499.7454      3930.7116     -138.95686    
      3700   304.78518      315.13322     -49018.388     -48703.255     -48521.006      81684.111      43.388955      3574.683       4155.8364      3087.0943      3481.1182     -584.36472    
      3800   300.39858      310.59768     -49021.512     -48710.915     -48510.493      81662.024      43.385045      3932.1977      4310.1971      3649.8809      3836.5152     -481.17134    
      3900   301.12887      311.35277     -49024.495     -48713.142     -48422.33       81662.137      43.385064      5705.6218      5124.0673      5488.2322      6504.566      -643.20608    
      4000   300.37851      310.57693     -49025.05      -48714.473     -48465.2        81664.203      43.38543       4890.5058      5124.8285      4456.1289      5090.5599     -401.59789    
      4100   296.9286       307.00989     -49021.913     -48714.903     -48375.463      81663.186      43.38525       6659.5904      6250.5799      6845.8511      6882.3401     -723.29497    
      4200   298.27207      308.39898     -49021.443     -48713.044     -48360.825      81642.303      43.381552      6912.0598      6911.4451      7464.4091      6360.3251     -449.35105    
      4300   303.24819      313.54404     -49022.099     -48708.555     -48439.871      81668.307      43.386157      5271.0728      4381.5579      5357.6305      6074.0301      209.15868    
      4400   303.4764       313.78        -49020.578     -48706.798     -48542.249      81698.146      43.39144       3226.9477      3425.576       3678.3935      2576.8735      1165.2141    
      4500   301.11211      311.33544     -49023.951     -48712.616     -48397.143      81685.869      43.389267      6187.642       5999.4354      5886.6857      6676.8048     -1176.9455    
      4600   300.48327      310.68524     -49027.397     -48716.712     -48380.454      81625.126      43.378509      6600.2364      7161.3369      6601.4515      6037.9209      52.185356    
      4700   301.58578      311.82519     -49027.193     -48715.367     -48338.89       81625.56       43.378586      7389.6377      7792.8236      7618.2437      6757.8457     -939.40134    
      4800   301.79469      312.04119     -49024.122     -48712.081     -48547.111      81690.435      43.390075      3235.5301      3212.7721      3019.2834      3474.5348      775.10714    
      4900   301.089        311.31154     -49019.596     -48708.285     -48575.759      81741.064      43.399037      2597.5907      2634.6913      2488.6635      2669.4172     -444.41972    
      5000   306.14186      316.53595     -49021.573     -48705.037     -48498.616      81676.629      43.387631      4049.1781      4192.9809      3683.8575      4270.6959     -733.37935    
      5100   304.89753      315.24939     -49020.921     -48705.671     -48395.864      81650.059      43.382925      6079.1797      5269.0392      6649.6581      6318.8418     -166.95437    
      5200   299.22513      309.38439     -49022.006     -48712.622     -48413.11       81651.81       43.383235      5877.0226      6670.63        5508.8136      5451.6244     -492.56242    
      5300   294.56329      304.56427     -49020.675     -48716.11      -48471.822      81685.99       43.389288      4791.4257      4504.8062      5219.3605      4650.1105      1709.9781    
      5400   296.34418      306.40563     -49022.748     -48716.342     -48480.816      81692.976      43.390525      4619.1927      5243.4216      4655.9846      3958.172       735.83396    
      5500   300.64394      310.85137     -49023.074     -48712.223     -48394.888      81651.745      43.383224      6226.7783      5340.4069      6708.6912      6631.2368      664.60938    
      5600   300.40339      310.60265     -49017.132     -48706.529     -48389.385      81669.908      43.386441      6221.6361      5749.1252      6821.4147      6094.3685      655.53648    
      5700   300.94779      311.16553     -49019.088     -48707.923     -48493.81       81726.436      43.396448      4197.4915      4588.4353      4302.7591      3701.28        540.30871    
      5800   300.18909      310.38108     -49023.159     -48712.778     -48536.156      81689.086      43.389836      3464.093       3443.3695      3251.4077      3697.502      -120.94579    
      5900   298.86255      309.0095      -49022.471     -48713.462     -48421.755      81627.393      43.378911      5725.5974      6407.1796      4908.6926      5860.9199      519.92174    
      6000   297.81072      307.92196     -49021.56      -48713.638     -48413.181      81675.68       43.387463      5893.8675      5781.0936      7308.6418      4591.8672      215.14302    
      6100   298.29163      308.4192      -49021.597     -48713.177     -48513.668      81701.853      43.392097      3912.3869      3220.2027      3608.0789      4908.8792      1033.0654    
      6200   299.15319      309.31001     -49021.017     -48711.707     -48475.114      81678.124      43.387896      4640.9279      4501.7166      5227.6589      4193.4083      1010.2876    
      6300   300.64451      310.85196     -49020.381     -48709.529     -48430.763      81661.102      43.384881      5469.3443      5614.467       5947.9325      4845.6334     -393.77745    
      6400   301.95387      312.20577     -49021.621     -48709.415     -48381.516      81638.623      43.3809        6435.0924      7481.5031      5654.8165      6168.9575     -463.64896    
      6500   299.8598       310.04061     -49024.371     -48714.33      -48421.169      81673.792      43.387128      5750.8774      4881.5578      5847.8391      6523.2353     -336.6065     
      6600   292.76522      302.70516     -49020.898     -48718.193     -48518.834      81666.506      43.385838      3911.115       3387.009       3649.373       4696.963       369.76799    
      6700   299.26605      309.4267      -49025.925     -48716.498     -48466.258      81662.075      43.385053      4909.6073      5146.7988      4589.539       4992.484       388.08569    
      6800   299.24292      309.40278     -49018.603     -48709.2       -48290.993      81665.466      43.385654      8204.6956      7943.8541      8652.1484      8018.0842      724.14336    
      6900   301.35555      311.58714     -49019.608     -48708.021     -48459.257      81635.191      43.380292      4882.2463      4231.5646      5748.0678      4667.1065      405.16416    
      7000   301.46581      311.70115     -49022.887     -48711.186     -48503.189      81689.756      43.389955      4079.423       3778.6701      3454.4399      5005.1592     -153.61266    
      7100   301.43733      311.6717      -49026.619     -48714.948     -48514.249      81678.501      43.387962      3936.8403      3754.753       4469.2553      3586.5127     -45.153117    
      7200   300.38682      310.58553     -49027.087     -48716.501     -48537.488      81647.813      43.382528      3512.7761      2875.9686      4590.2914      3072.0684     -91.472488    
      7300   300.21282      310.40562     -49024.076     -48713.671     -48515.479      81691.636      43.390288      3887.03        3985.4928      3613.1076      4062.4895      1838.8957    
      7400   304.67153      315.0157      -49021.709     -48706.694     -48438.926      81694.673      43.390826      5251.3864      3511.7581      6318.3752      5924.0259      1366.4947    
      7500   301.9551       312.20705     -49019.78      -48707.573     -48436.098      81665.324      43.385629      5326.0236      5003.9114      5732.2026      5241.9569      276.63396    
      7600   302.73761      313.01613     -49026.093     -48713.077     -48423.935      81649.739      43.382869      5673.7089      5981.3934      5823.2449      5216.4883     -284.58521    
      7700   301.74035      311.985       -49027.376     -48715.391     -48475.256      81682.432      43.388658      4710.1695      5093.8875      4456.1734      4580.4476     -119.35622    
      7800   299.4608       309.62807     -49024.264     -48714.636     -48408.074      81661.839      43.385012      6014.6367      5915.5352      5736.1965      6392.1784     -12.152089    
      7900   298.46349      308.59689     -49021.414     -48712.817     -48474.882      81690.324      43.390056      4666.5676      4739.6566      5404.8787      3855.1675     -1983.4251    
      8000   304.47246      314.80988     -49021.557     -48706.747     -48560.327      81692.698      43.390476      2871.6176      3365.2179      2083.9658      3165.6691      89.452086    
Loop time of 30.9411 on 8 procs for 8000 steps with 8000 atoms

Performance: 22.339 ns/day, 1.074 hours/ns, 258.556 timesteps/s
99.7% CPU use with 8 MPI tasks x no OpenMP threads

MPI task timing breakdown:
Section |  min time  |  avg time  |  max time  |%varavg| %total
---------------------------------------------------------------
Pair    | 28.99      | 29.574     | 29.935     |   5.5 | 95.58
Neigh   | 0          | 0          | 0          |   0.0 |  0.00
Comm    | 0.57564    | 0.93612    | 1.5175     |  31.1 |  3.03
Output  | 0.0022946  | 0.0026784  | 0.0051747  |   1.8 |  0.01
Modify  | 0.37566    | 0.37737    | 0.37929    |   0.2 |  1.22
Other   |            | 0.0505     |            |       |  0.16

Nlocal:           1000 ave        1014 max         984 min
Histogram: 1 0 1 0 2 1 0 1 0 2
Nghost:           2060 ave        2076 max        2046 min
Histogram: 1 1 1 0 1 1 1 0 1 1
Neighs:              0 ave           0 max           0 min
Histogram: 8 0 0 0 0 0 0 0 0 0
FullNghs:        46000 ave       46644 max       45264 min
Histogram: 1 0 1 0 2 1 0 1 0 2

Total # of neighbors = 368000
Ave neighs/atom = 46
Neighbor list builds = 0
Dangerous builds = 0
System init for write_restart ...
5000
7500
Setting up Verlet run ...
  Unit style    : metal
  Current step  : 0
  Time step     : 0.001
Per MPI rank memory allocation (min/avg/max) = 3.123 | 3.134 | 3.143 Mbytes
   Step          Temp          KinEng         PotEng         TotEng        Enthalpy        Volume           Lx           Press           Pxx            Pyy            Pzz            Pyz      
         0   304.47246      314.80988     -49021.557     -48706.747     -48560.327      81692.698      43.390476      2871.6176      3365.2179      2083.9658      3165.6691      89.452086    
       100   304.33869      314.67157     -49024.534     -48709.863     -48385.163      81647.675      43.382503      6371.592       6600.0845      6939.522       5575.1696     -27.045051    
       200   298.07516      308.19538     -49023.754     -48715.558     -48418.597      81655.611      43.383909      5826.7125      4590.9558      7180.9386      5708.2431      1479.4048    
       300   297.31083      307.4051      -49023.561     -48716.155     -48267.267      81646.32       43.382263      8808.7134      8515.0401      8290.0243      9621.0758      885.77597    
       400   300.56401      310.76873     -49025.464     -48714.695     -48228.746      81572.075      43.369109      9544.6301      8736.0054      10929.726      8968.1594      9.759197     
       500   302.38267      312.64913     -49024.959     -48712.31      -48214.512      81569.175      43.368595      9777.7086      10137.429      10368.427      8827.2693      282.57347    
Loop time of 1.94549 on 8 procs for 500 steps with 8000 atoms

Performance: 22.205 ns/day, 1.081 hours/ns, 257.005 timesteps/s
99.7% CPU use with 8 MPI tasks x no OpenMP threads

MPI task timing breakdown:
Section |  min time  |  avg time  |  max time  |%varavg| %total
---------------------------------------------------------------
Pair    | 1.8363     | 1.8599     | 1.8862     |   1.0 | 95.60
Neigh   | 0          | 0          | 0          |   0.0 |  0.00
Comm    | 0.032232   | 0.058657   | 0.082187   |   5.9 |  3.02
Output  | 0.00013843 | 0.00016491 | 0.00032648 |   0.0 |  0.01
Modify  | 0.023444   | 0.02355    | 0.023687   |   0.0 |  1.21
Other   |            | 0.003252   |            |       |  0.17

Nlocal:           1000 ave        1015 max         990 min
Histogram: 1 1 2 0 1 2 0 0 0 1
Nghost:           2060 ave        2070 max        2045 min
Histogram: 1 0 0 0 2 0 1 2 1 1
Neighs:              0 ave           0 max           0 min
Histogram: 8 0 0 0 0 0 0 0 0 0
FullNghs:        46000 ave       46690 max       45540 min
Histogram: 1 1 2 0 1 2 0 0 0 1

Total # of neighbors = 368000
Ave neighs/atom = 46
Neighbor list builds = 0
Dangerous builds = 0
System init for write_restart ...
Setting up Verlet run ...
  Unit style    : metal
  Current step  : 500
  Time step     : 0.001
Per MPI rank memory allocation (min/avg/max) = 3.123 | 3.134 | 3.143 Mbytes
   Step          Temp          KinEng         PotEng         TotEng        Enthalpy        Volume           Lx           Press           Pxx            Pyy            Pzz            Pyz      
       500   302.38267      312.64913     -49024.959     -48712.31      -48214.512      81569.175      43.368595      9777.7086      10137.429      10368.427      8827.2693      282.57347    
       600   301.46891      311.70436     -49026.054     -48714.349     -48294.985      81599.562      43.37398       8234.0533      8207.1217      7842.7854      8652.2527      690.19348    
       700   298.15515      308.27809     -49028.451     -48720.173     -48430.394      81631.035      43.379556      5687.4972      5293.1855      5852.5699      5916.7362      116.03806    
       800   292.03048      301.94547     -49025.632     -48723.686     -48345.462      81613.577      43.376463      7425.0177      7429.7193      7013.1492      7832.1846      1486.3603    
       900   299.26743      309.42813     -49027.636     -48718.207     -48225.091      81546.255      43.364533      9688.4843      9021.162       10282.97       9761.3214     -1710.0741    
      1000   304.6986       315.0437      -49028.916     -48713.873     -48186.309      81512.196      43.358495      10369.624      10511.033      10603.875      9993.965      -1177.0436    
      1100   301.87927      312.12864     -49026.194     -48714.065     -48408.03       81600.578      43.37416       6008.8014      6619.4417      5197.3977      6209.5648     -383.18459    
      1200   298.09594      308.21686     -49023.028     -48714.811     -48537.11       81705.709      43.392779      3484.5589      3356.1101      4176.5608      2921.0056     -1758.5407    
      1300   298.98157      309.13257     -49024.823     -48715.69      -48363.366      81633.71       43.38003       6914.8523      5888.4532      7833.3992      7022.7046      1652.1194    
      1400   301.2483       311.47625     -49028.535     -48717.059     -48171.425      81506.468      43.357479      10725.55       10552.954      11240.332      10383.362     -182.0796     
      1500   298.33441      308.46342     -49026.731     -48718.268     -48157.372      81518.684      43.359645      11023.903      10903.332      11887.404      10280.973      450.64266    
      1600   302.02162      312.27583     -49028.268     -48715.993     -48360.194      81634.962      43.380251      6982.942       7446.0542      6773.0238      6729.7479     -974.52045    
      1700   302.78692      313.06711     -49024.063     -48710.996     -48452.964      81660.588      43.38479       5062.5631      4667.6367      6066.5655      4453.4871     -357.54819    
      1800   301.19229      311.41834     -49021.556     -48710.138     -48443.633      81652.11       43.383289      5229.3565      5109.5466      5079.2748      5499.2481      791.77376    
      1900   300.49888      310.70138     -49027.273     -48716.572     -48325.461      81592.552      43.372738      7679.9657      6133.5416      9131.7153      7774.6403     -400.02972    
      2000   299.23609      309.39572     -49029.375     -48719.979     -48239.793      81558.906      43.366775      9432.9893      8327.6074      11069.976      8901.3842     -175.68101    
Loop time of 5.85075 on 8 procs for 1500 steps with 8000 atoms

Performance: 22.151 ns/day, 1.083 hours/ns, 256.377 timesteps/s
99.7% CPU use with 8 MPI tasks x no OpenMP threads

MPI task timing breakdown:
Section |  min time  |  avg time  |  max time  |%varavg| %total
---------------------------------------------------------------
Pair    | 5.467      | 5.5715     | 5.691      |   3.0 | 95.23
Neigh   | 0          | 0          | 0          |   0.0 |  0.00
Comm    | 0.079066   | 0.19823    | 0.30297    |  15.8 |  3.39
Output  | 0.00040954 | 0.00047637 | 0.00090337 |   0.0 |  0.01
Modify  | 0.070062   | 0.070761   | 0.071149   |   0.1 |  1.21
Other   |            | 0.009812   |            |       |  0.17

Nlocal:           1000 ave        1019 max         983 min
Histogram: 1 0 2 0 1 1 2 0 0 1
Nghost:           2060 ave        2077 max        2041 min
Histogram: 1 0 0 2 1 1 0 2 0 1
Neighs:              0 ave           0 max           0 min
Histogram: 8 0 0 0 0 0 0 0 0 0
FullNghs:        46000 ave       46874 max       45218 min
Histogram: 1 0 2 0 1 1 2 0 0 1

Total # of neighbors = 368000
Ave neighs/atom = 46
Neighbor list builds = 0
Dangerous builds = 0
System init for write_restart ...
Setting up Verlet run ...
  Unit style    : metal
  Current step  : 0
  Time step     : 0.001
Per MPI rank memory allocation (min/avg/max) = 3.123 | 3.134 | 3.143 Mbytes
   Step          Temp          KinEng         PotEng         TotEng        Enthalpy        Volume           Lx           Press           Pxx            Pyy            Pzz            Pyz      
         0   299.23609      309.39572     -49029.375     -48719.979     -48239.793      81558.906      43.366775      9432.9893      8327.6074      11069.976      8901.3842     -175.68101    
       100   300.84737      311.06171     -49028.365     -48717.303     -48347.159      81569.165      43.368594      7270.3486      7621.3239      7085.6124      7104.1093     -149.87403    
       200   302.59412      312.86777     -49024.56      -48711.692     -48489.054      81659.162      43.384538      4368.2252      4731.6685      4934.2442      3438.7627     -133.37079    
       300   303.54117      313.84697     -49025.211     -48711.364     -48520.049      81659.044      43.384517      3753.6623      3908.4235      3747.302       3605.2613     -63.891027    
       400   303.2246       313.51965     -49026.767     -48713.247     -48298.913      81593.254      43.372862      8135.9199      7313.2379      7139.9712      9954.5506      646.99739    
       500   299.3412       309.50441     -49025.187     -48715.682     -48186.776      81537.552      43.36299       10392.77       11431.839      10404.739      9341.7327      678.01603    
       600   297.12932      307.21742     -49024.362     -48717.144     -48215.82       81567.628      43.368321      9847.1652      10355.418      9656.2809      9529.7967      413.67952    
       700   301.45884      311.69394     -49027.873     -48716.179     -48392.228      81609.992      43.375828      6359.8491      7753.1989      6300.2693      5026.079       870.8092     
       800   299.29336      309.45494     -49020.796     -48711.341     -48298.598      81643.449      43.381755      8099.6802      7393.6923      7374.7905      9530.5578      642.08445    
       900   302.84596      313.12815     -49022.381     -48709.253     -48260.003      81580.142      43.370539      8822.9513      9164.3435      9586.1508      7718.3596     -103.14204    
      1000   303.42402      313.72584     -49026.904     -48713.178     -48267.259      81562.379      43.367391      8759.4435      9216.0254      8750.0474      8312.2576      2303.9132    
      1100   294.29753      304.28949     -49023.165     -48718.875     -48454.753      81628.52       43.37911       5184.1027      5374.7447      4794.4193      5383.144       629.931      
      1200   297.34249      307.43783     -49025.922     -48718.484     -48426.907      81617.06       43.37708       5723.7785      6482.0368      4531.615       6157.6837     -1026.7261    
      1300   301.61896      311.8595      -49027.743     -48715.883     -48325.084      81606.269      43.375168      7672.5696      7727.7266      8496.5207      6793.4615     -1047.8762    
      1400   301.10744      311.33061     -49025.006     -48713.676     -48196.003      81563.887      43.367658      10168.756      11752.424      8996.5278      9757.316      -303.41082    
      1500   297.57958      307.68297     -49021.754     -48714.072     -48364.761      81627.466      43.378924      6856.2413      7092.9538      6453.8381      7021.9319     -1529.105     
      1600   299.67262      309.84707     -49024.381     -48714.534     -48390.533      81640.153      43.381171      6358.4702      6288.1346      6010.0847      6777.1914     -1207.2209    
      1700   298.79102      308.93554     -49024.156     -48715.22      -48334.081      81596.34       43.373409      7483.815       7643.8703      6507.3618      8300.2129      985.62981    
      1800   301.08923      311.31179     -49028.116     -48716.804     -48364.811      81592.48       43.372725      6911.8608      7454.1343      7320.5321      5960.916       247.02079    
      1900   297.20537      307.29606     -49027.441     -48720.145     -48274.198      81562.783      43.367462      8759.9355      8609.5589      8477.4365      9192.8112      682.07703    
      2000   296.40744      306.47104     -49027.163     -48720.692     -48230.775      81555.736      43.366213      9624.4944      10446.191      10663.432      7763.8605      975.53493    
      2100   298.57063      308.70767     -49023.954     -48715.246     -48451.399      81630.642      43.379486      5178.5731      4903.5155      5499.5421      5132.6616      1735.5819    
      2200   299.30625      309.46827     -49021.114     -48711.646     -48341.729      81639.863      43.38112       7259.5897      7509.1641      7068.9532      7200.6517      936.34068    
      2300   302.96444      313.25066     -49025.774     -48712.523     -48296.911      81587.266      43.371801      8161.6113      8028.6661      7908.4957      8547.6721     -262.38478    
      2400   303.66131      313.97119     -49030.127     -48716.156     -48254.567      81537.088      43.362908      9070.0605      7698.2422      9503.3884      10008.551     -432.41766    
      2500   295.91787      305.96484     -49027.131     -48721.166     -48365.508      81585.034      43.371406      6984.4649      7654.4463      7179.6117      6119.3368     -528.76647    
      2600   292.99603      302.9438      -49031.075     -48728.131     -48535.326      81644.895      43.382011      3783.5585      3988.1656      3523.8544      3838.6553     -875.80272    
      2700   296.55229      306.6208      -49033.08      -48726.46      -48519.529      81604.397      43.374837      4062.7536      5348.348       3938.0954      2901.8175     -1024.2703    
      2800   300.70989      310.91956     -49029.463     -48718.543     -48201.49       81547.812      43.364809      10158.575      10771.356      9765.2842      9939.0842     -1149.1516    
      2900   299.00852      309.16043     -49023.623     -48714.462     -48216.306      81555.201      43.366119      9786.4323      9665.0317      8888.535       10805.73       90.831565    
      3000   303.23144      313.52672     -49025.28      -48711.753     -48286.405      81615.842      43.376864      8349.8895      8054.4773      9004.3744      7990.8169      685.81414    
      3100   302.40088      312.66796     -49024.57      -48711.902     -48340.223      81632.838      43.379875      7294.8078      7395.9931      7495.4188      6993.0114     -13.505747    
      3200   298.68712      308.82811     -49026.071     -48717.243     -48387.401      81609.673      43.375772      6475.5293      6659.0316      6724.0861      6043.4702     -155.46927    
      3300   298.9159       309.06466     -49029.83      -48720.765     -48313.647      81592.294      43.372692      7994.3254      7997.0027      7601.4381      8384.5353      1754.3728    
      3400   298.41235      308.54401     -49027.355     -48718.811     -48315.009      81615.893      43.376873      7926.9215      8154.9802      8452.7104      7173.0741      848.94428    
      3500   297.34141      307.43672     -49023.311     -48715.875     -48402.408      81631.584      43.379653      6152.3909      5411.3776      6185.033       6860.7619      363.1751     
      3600   300.68959      310.89857     -49025.606     -48714.707     -48361.342      81587.8        43.371896      6939.1964      8168.74        5917.6698      6731.1795      1449.8097    
      3700   299.85206      310.0326      -49024.373     -48714.34      -48236.139      81568.384      43.368455      9392.8758      10163.689      8782.2463      9232.6918     -76.492689    
      3800   299.93513      310.1185      -49025.504     -48715.386     -48310.972      81623.543      43.378229      7938.1703      8639.8492      8178.04        6996.6218      907.56779    
      3900   297.24601      307.33807     -49026.18      -48718.842     -48449.308      81648.342      43.382621      5289.0292      5616.3141      5368.1624      4882.6111     -1784.723     
      4000   298.33212      308.46106     -49030.024     -48721.563     -48356.136      81605.754      43.375077      7174.4673      5897.6093      8954.8301      6670.9625     -497.83736    
      4100   298.66028      308.80036     -49027.249     -48718.449     -48335.313      81586.17       43.371607      7523.948       7169.3979      7361.5687      8040.8773     -1377.1668    
      4200   299.26508      309.4257      -49021.907     -48712.481     -48283.259      81615.894      43.376874      8425.92        8905.744       9024.6664      7347.3497     -1156.8482    
      4300   300.61288      310.81925     -49022.736     -48711.917     -48339.558      81633.922      43.380067      7308.0632      8484.9549      7139.1257      6300.1089      1863.9873    
      4400   299.91863      310.10144     -49024.23      -48714.129     -48324.021      81611.569      43.376107      7658.4977      7847.6944      7816.7823      7311.0163      896.34429    
      4500   299.05869      309.2123      -49026.651     -48717.439     -48290.933      81581.408      43.370763      8376.1454      9804.1636      7672.9077      7651.3648      583.42579    
      4600   295.43108      305.46152     -49027.443     -48721.981     -48354.704      81588.878      43.372087      7212.2936      6533.7466      7167.3226      7935.8117      1732.0276    
      4700   293.25549      303.21207     -49031.011     -48727.799     -48282.228      81570.26       43.368788      8751.7614      8780.2214      7660.685       9814.3777      2956.3323    
      4800   296.90897      306.98959     -49029.315     -48722.325     -48390.114      81584.772      43.371359      6524.0238      6724.2946      5929.46        6918.3168     -186.60535    
      4900   299.79095      309.96942     -49027.126     -48717.156     -48345.204      81609.869      43.375806      7302.2232      7134.8963      7319.8571      7451.9161      438.18099    
      5000   300.24711      310.44106     -49024.158     -48713.717     -48383.609      81608.614      43.375584      6480.8256      7134.169       7080.8438      5227.464      -636.74686    
      5100   301.66589      311.90802     -49023.6       -48711.692     -48243.598      81602.945      43.37458       9190.4708      9077.1431      9733.8423      8760.427      -1490.0954    
      5200   299.08952      309.24418     -49022.348     -48713.104     -48413.402      81616.01       43.376894      5883.3342      6375.4481      5134.482       6140.0727     -617.86636    
      5300   295.69723      305.73672     -49025.682     -48719.945     -48369.687      81641.907      43.381482      6873.6287      7571.0328      6076.2518      6973.6016     -2105.4372    
      5400   298.43497      308.5674      -49029.863     -48721.296     -48432.06       81625.502      43.378576      5677.2269      6273.752       5755.1361      5002.7927     -1267.566     
      5500   298.66272      308.80289     -49025.48      -48716.677     -48300.483      81563.852      43.367652      8175.3797      7946.1197      8267.4858      8312.5334      332.54293    
      5600   303.15994      313.4528      -49027.028     -48713.576     -48292.359      81565.267      43.367903      8273.8974      9655.9211      8645.2166      6520.5545      926.35742    
      5700   298.76278      308.90635     -49022.669     -48713.762     -48316.462      81604.947      43.374934      7800.3323      8317.9111      6829.492       8253.5937      2228.5807    
      5800   298.48881      308.62308     -49024.099     -48715.476     -48505.085      81685.898      43.389272      4126.5664      4416.5771      4147.494       3815.6282      1894.952     
      5900   300.1308       310.32081     -49028.885     -48718.565     -48521.215      81658.164      43.384361      3872.1138      4280.1947      3117.5407      4218.606       1087.217     
      6000   293.5901       303.55804     -49026.716     -48723.158     -48316.153      81586.648      43.371692      7992.6585      6966.6889      8536.1137      8475.173       1427.6613    
      6100   295.36532      305.39354     -49027.533     -48722.14      -48176.54       81512.433      43.358537      10724.107      9264.4994      11806.48       11101.342     -161.27541    
      6200   299.43776      309.60424     -49023.751     -48714.147     -48249.756      81567.005      43.368211      9121.7794      9794.3591      8338.9128      9232.0664      564.10421    
      6300   302.33656      312.60146     -49025.484     -48712.882     -48443.757      81666.351      43.385811      5279.8595      5293.8718      4933.0026      5612.7041      339.16802    
      6400   299.15307      309.30988     -49023.169     -48713.859     -48517.198      81664.781      43.385533      3858.2853      3847.0296      4098.4358      3629.3906     -1096.9992    
      6500   298.81022      308.95539     -49026.293     -48717.338     -48270.214      81587.001      43.371754      8780.4568      8698.9724      9609.693       8032.7049     -779.89104    
      6600   292.97067      302.91758     -49024.078     -48721.16      -48213.688      81571.864      43.369072      9967.404       9483.3525      10559.548      9859.3118      1683.0438    
      6700   300.45032      310.65118     -49029.473     -48718.822     -48238.19       81566.013      43.368035      9440.9091      8940.1997      9338.6008      10043.927      155.21305    
      6800   302.38176      312.6482      -49023.363     -48710.715     -48275.659      81594.213      43.373032      8542.7162      8149.7541      8635.739       8842.6556     -1452.5369    
      6900   303.1805       313.47405     -49024.286     -48710.812     -48332.042      81610.863      43.375982      7435.9734      7782.7916      7615.6082      6909.5204     -1448.5492    
      7000   300.61451      310.82094     -49026.222     -48715.401     -48358.269      81627.106      43.37886       7009.7881      6367.7221      6877.2442      7784.398       2121.5307    
      7100   297.96125      308.0776      -49026.947     -48718.869     -48408.712      81635.289      43.380309      6087.1567      5873.8698      6710.1549      5677.4454      1658.1371    
      7200   297.21577      307.3068      -49024.946     -48717.64      -48234.087      81560.368      43.367034      9498.939       9768.6844      9822.8992      8905.2333      1781.1782    
      7300   303.12996      313.4218      -49022.765     -48709.343     -48217.591      81591.575      43.372565      9656.3072      9221.4069      9576.8966      10170.618      1334.258     
      7400   305.20231      315.56451     -49023.399     -48707.834     -48331.68       81637.912      43.380774      7382.1725      6311.9733      8946.462       6888.0824      1291.8774    
      7500   297.70236      307.80992     -49020.426     -48712.616     -48308.88       81643.607      43.381783      7922.9267      7495.4457      7745.1763      8528.1581     -566.45837    
      7600   298.96912      309.11969     -49025.336     -48716.217     -48366.251      81584.93       43.371387      6872.6759      5812.5294      7404.1963      7401.3022     -134.07903    
      7700   299.8564       310.03709     -49027.469     -48717.432     -48355.909      81598.121      43.373725      7098.4877      7462.6459      6818.194       7014.6232     -1687.2122    
      7800   300.27223      310.46704     -49026.276     -48715.809     -48383.256      81603.157      43.374617      6529.2703      5871.4432      7332.0394      6384.3283     -1091.2897    
      7900   299.24433      309.40424     -49017.623     -48708.219     -48353.414      81635.269      43.380306      6963.4119      6584.0363      6829.5038      7476.6955     -721.16159    
      8000   301.59952      311.8394      -49018.936     -48707.096     -48279.202      81617.241      43.377112      8399.7313      8755.0151      8249.5911      8194.5877     -333.81049    
Loop time of 31.0885 on 8 procs for 8000 steps with 8000 atoms

Performance: 22.233 ns/day, 1.079 hours/ns, 257.330 timesteps/s
99.7% CPU use with 8 MPI tasks x no OpenMP threads

MPI task timing breakdown:
Section |  min time  |  avg time  |  max time  |%varavg| %total
---------------------------------------------------------------
Pair    | 29.224     | 29.732     | 30.081     |   4.7 | 95.64
Neigh   | 0          | 0          | 0          |   0.0 |  0.00
Comm    | 0.57836    | 0.92602    | 1.4324     |  26.6 |  2.98
Output  | 0.0023525  | 0.0027442  | 0.0053213  |   1.9 |  0.01
Modify  | 0.37559    | 0.37661    | 0.3776     |   0.1 |  1.21
Other   |            | 0.05085    |            |       |  0.16

Nlocal:           1000 ave        1014 max         987 min
Histogram: 1 1 1 1 0 1 1 0 1 1
Nghost:           2060 ave        2073 max        2046 min
Histogram: 1 1 0 1 1 0 1 1 1 1
Neighs:              0 ave           0 max           0 min
Histogram: 8 0 0 0 0 0 0 0 0 0
FullNghs:        46000 ave       46644 max       45402 min
Histogram: 1 1 1 1 0 1 1 0 1 1

Total # of neighbors = 368000
Ave neighs/atom = 46
Neighbor list builds = 0
Dangerous builds = 0
System init for write_restart ...
7500
10000
Setting up Verlet run ...
  Unit style    : metal
  Current step  : 0
  Time step     : 0.001
Per MPI rank memory allocation (min/avg/max) = 3.123 | 3.134 | 3.143 Mbytes
   Step          Temp          KinEng         PotEng         TotEng        Enthalpy        Volume           Lx           Press           Pxx            Pyy            Pzz            Pyz      
         0   301.59952      311.8394      -49018.936     -48707.096     -48279.202      81617.241      43.377112      8399.7313      8755.0151      8249.5911      8194.5877     -333.81049    
       100   299.14         309.29637     -49020.657     -48711.361     -48325.565      81606.477      43.375205      7574.3091      6597.9882      8291.1467      7833.7926      406.28875    
       200   301.83345      312.08127     -49028.179     -48716.098     -48312.279      81591.459      43.372544      7929.6132      7827.1377      7332.0845      8629.6174     -1114.2813    
       300   299.28432      309.44559     -49025.951     -48716.505     -48246.905      81532.706      43.362131      9227.9737      8525.23        8313.3699      10845.321     -58.212716    
       400   298.98305      309.13409     -49025.213     -48716.079     -48211.542      81516.361      43.359233      9916.488       9578.8575      10477.431      9693.1761     -82.162174    
[...]
      2000   299.8125       309.9917      -49031.636     -48721.644     -47579.653      81198.769      43.30285       22533.244      21799.212      22818.757      22981.764     -264.01764    
Loop time of 6.02972 on 8 procs for 1500 steps with 8000 atoms

Performance: 21.494 ns/day, 1.117 hours/ns, 248.768 timesteps/s
99.6% CPU use with 8 MPI tasks x no OpenMP threads

MPI task timing breakdown:
Section |  min time  |  avg time  |  max time  |%varavg| %total
---------------------------------------------------------------
Pair    | 5.7339     | 5.7674     | 5.8483     |   1.5 | 95.65
Neigh   | 0          | 0          | 0          |   0.0 |  0.00
Comm    | 0.098663   | 0.17966    | 0.2132     |   8.6 |  2.98
Output  | 0.00045263 | 0.00057562 | 0.0014089  |   0.0 |  0.01
Modify  | 0.071794   | 0.0722     | 0.072573   |   0.1 |  1.20
Other   |            | 0.009876   |            |       |  0.16

Nlocal:           1000 ave        1010 max         992 min
Histogram: 1 2 0 1 1 0 1 0 1 1
Nghost:           2060 ave        2068 max        2050 min
Histogram: 1 1 0 1 0 1 1 0 2 1
Neighs:              0 ave           0 max           0 min
Histogram: 8 0 0 0 0 0 0 0 0 0
FullNghs:        46000 ave       46460 max       45632 min
Histogram: 1 2 0 1 1 0 1 0 1 1

Total # of neighbors = 368000
Ave neighs/atom = 46
Neighbor list builds = 0
Dangerous builds = 0

write_restart   restart_${T0}K${P2}bar.rlx
write_restart   restart_300K${P2}bar.rlx
write_restart   restart_300K25000bar.rlx
System init for write_restart ...

unfix           relax
unfix           rlx_out

#
# Run at P2 for equilibrium data
#

reset_timestep  0

fix equi        all npt temp ${T0} ${T0} 0.1 iso ${P2} ${P2} 1.
fix equi        all npt temp 300 ${T0} 0.1 iso ${P2} ${P2} 1.
fix equi        all npt temp 300 300 0.1 iso ${P2} ${P2} 1.
fix equi        all npt temp 300 300 0.1 iso 25000 ${P2} 1.
fix equi        all npt temp 300 300 0.1 iso 25000 25000 1.
fix eq_out      all print 10 "${vstep} ${vtemp} ${vke} ${vpe} ${vte} ${venth} ${vvol} ${vlx} ${vpress} ${vpxx} ${vpyy} ${vpzz} ${vpyz}"                 file npt${T0}K${P2}bar.eql  screen no
fix eq_out      all print 10 "${vstep} ${vtemp} ${vke} ${vpe} ${vte} ${venth} ${vvol} ${vlx} ${vpress} ${vpxx} ${vpyy} ${vpzz} ${vpyz}"                 file npt300K${P2}bar.eql  screen no
fix eq_out      all print 10 "${vstep} ${vtemp} ${vke} ${vpe} ${vte} ${venth} ${vvol} ${vlx} ${vpress} ${vpxx} ${vpyy} ${vpzz} ${vpyz}"                 file npt300K25000bar.eql  screen no

run             ${step_equi}
run             8000
Per MPI rank memory allocation (min/avg/max) = 3.123 | 3.134 | 3.143 Mbytes
   Step          Temp          KinEng         PotEng         TotEng        Enthalpy        Volume           Lx           Press           Pxx            Pyy            Pzz            Pyz      
         0   299.8125       309.9917      -49031.636     -48721.644     -47579.653      81198.769      43.30285       22533.244      21799.212      22818.757      22981.764     -264.01764    
       100   298.80434      308.94931     -49032.573     -48723.624     -47419.815      81148.254      43.293868      25742.161      25621.952      25694.945      25909.587      165.78025    
       200   297.86283      307.97584     -49037.23      -48729.254     -47442.069      81133.296      43.291208      25418.629      25595.357      25635.831      25024.699      1352.842     
       300   299.35701      309.52075     -49039.29      -48729.769     -47528.954      81138.426      43.292121      23711.544      23877.386      24336.642      22920.603     -1897.7479    
       400   297.94395      308.05971     -49035.705     -48727.646     -47464.952      81146.94       43.293635      24930.798      24703.513      24577.511      25511.371      337.91329    
       500   301.82063      312.06801     -49036.873     -48724.805     -47389.267      81133.759      43.291291      26373.337      25207.354      26531.114      27381.542      1992.5567    
       600   300.5337       310.73739     -49033.38      -48722.643     -47243.177      81127.311      43.290144      29217.843      29817.161      28188.335      29648.034      256.6952     
       700   303.93225      314.25132     -49035.793     -48721.542     -47554.965      81159.001      43.29578       23029.638      23312.564      23335.233      22441.117     -1092.208     
       800   303.98954      314.31056     -49036.443     -48722.132     -47484.859      81160.611      43.296066      24424.783      23724.532      24816.557      24733.259      170.78883    
       900   298.37394      308.5043      -49036.024     -48727.52      -47554.443      81184.103      43.300243      23150.794      23360.329      22767.978      23324.075     -246.71731    
      1000   294.30338      304.29554     -49034.294     -48729.999     -47430.353      81149.681      43.294122      25659.509      27040.604      24751.408      25186.514      186.53421    
      1100   300.15924      310.35021     -49038.104     -48727.753     -47389.664      81099.969      43.28528       26434.731      28121.411      25888.678      25294.105      382.02172    
      1200   301.10244      311.32544     -49032.645     -48721.32      -47383.162      81141.881      43.292735      26422.434      25951.926      26164.342      27151.033      1763.3604    
      1300   303.28608      313.58322     -49034.106     -48720.522     -47522.828      81188.512      43.301027      23635.335      23801.948      23731.847      23372.208      1498.1822    
      1400   299.57114      309.74215     -49033.715     -48723.973     -47640.128      81219.461      43.306528      21380.473      21590.684      21210.048      21340.685      1760.1435    
      1500   301.26543      311.49397     -49037.418     -48725.924     -47497.192      81154.156      43.294918      24258.112      24126.174      24527.268      24120.893     -2134.1346    
      1600   302.27939      312.54235     -49039.393     -48726.85      -47490.447      81139.101      43.292241      24414.078      24342.413      24075.521      24824.301      1216.0475    
      1700   299.45756      309.62471     -49035.934     -48726.309     -47455.193      81134.82       43.291479      25100.843      25001.321      25800.674      24500.535      312.28295    
      1800   300.32954      310.52629     -49034.065     -48723.539     -47241.555      81125.343      43.289794      29268.289      28639.026      29640.353      29525.488     -903.74383    
      1900   303.77762      314.09144     -49029.594     -48715.502     -47292.595      81135.281      43.291561      28098.128      27710.906      28006.287      28577.192     -808.78864    
      2000   302.73727      313.01578     -49031.642     -48718.626     -47393.697      81175.941      43.298792      26150.238      25183.249      26526.771      26740.695     -410.85627    
      2100   297.55032      307.65272     -49032.261     -48724.608     -47400.162      81156.554      43.295344      26146.952      25952.372      25809.523      26678.96      -145.53482    
      2200   297.69743      307.80482     -49035.706     -48727.901     -47449.445      81182.556      43.299968      25230.939      25686.715      25606.044      24400.057     -1499.4717    
      2300   299.23436      309.39393     -49037.986     -48728.592     -47522.571      81174.162      43.298475      23803.872      22093.788      24510.858      24806.969     -1125.7724    
      2400   299.11195      309.26737     -49035.419     -48726.152     -47497.044      81160.743      43.296089      24263.544      24044.688      25483.613      23262.333     -232.16512    
      2500   300.51635      310.71945     -49030.552     -48719.833     -47382.26       81177.161      43.299009      26399.392      27669.762      24588.144      26940.269     -926.42248    
      2600   303.66958      313.97974     -49033.367     -48719.387     -47495.293      81161.542      43.296231      24164.348      24008.633      25427.371      23057.039      446.02573    
      2700   300.91509      311.13173     -49036.665     -48725.533     -47483.568      81159.285      43.29583       24517.793      25427.439      24591.305      23534.637      984.10852    
      2800   297.23751      307.32928     -49035.618     -48728.289     -47525.831      81192.126      43.301669      23728.278      23873.133      24010.256      23301.446      1116.2353    
      2900   298.83193      308.97784     -49036.02      -48727.042     -47493.266      81159.43       43.295856      24356.096      24401.914      24437.003      24229.371      63.664808    
      3000   300.47253      310.67415     -49035.698     -48725.023     -47488.346      81164.799      43.296811      24411.755      23526.872      24412.413      25295.978      1512.8016    
      3100   301.09356      311.31625     -49032.602     -48721.286     -47425.667      81165.47       43.29693       25575.031      25083.114      24369.749      27272.23      -215.11647    
      3200   304.91738      315.2699      -49032.576     -48717.306     -47392.639      81143.861      43.293087      26155.414      27044.532      26073.755      25347.955      660.3846     
      3300   304.46682      314.80405     -49036.414     -48721.61      -47407.637      81130.851      43.290773      25948.416      26251.7        25802.726      25790.822     -738.45441    
      3400   300.19845      310.39076     -49038.401     -48728.01      -47506.204      81148.524      43.293916      24123.03       23726.254      25124.711      23518.127      1179.1705    
      3500   299.89525      310.07727     -49038.708     -48728.631     -47521.1        81155.445      43.295147      23839.153      23117.466      24733.472      23666.522     -408.0934     
      3600   302.52758      312.79896     -49038.071     -48725.273     -47492.527      81140.725      43.292529      24341.363      24296.721      24254.424      24472.944     -1436.68      
      3700   302.16501      312.42408     -49032.637     -48720.213     -47448.205      81145.73       43.29342       25115.082      24630.592      24915.474      25799.179     -1404.272     
      3800   303.19688      313.49099     -49031.356     -48717.865     -47340.535      81117.798      43.288452      27203.964      27617.586      25237.024      28757.282      903.12853    
      3900   299.56637      309.73721     -49035.828     -48726.091     -47363.208      81124.557      43.289654      26916.369      26704.22       26700.227      27344.661      1136.4258    
      4000   295.8592       305.90418     -49036.144     -48730.24      -47473.978      81159.668      43.295898      24799.914      24621.642      24678.7        25099.398     -1696.3996    
      4100   300.81992      311.03333     -49039.893     -48728.86      -47557.636      81189.419      43.301188      23112.699      23782.535      22583.339      22972.222      39.74381     
      4200   298.91984      309.06873     -49032.945     -48723.877     -47573.843      81191.854      43.301621      22693.858      22500.823      23084.351      22496.399     -2464.4436    
      4300   303.40668      313.70791     -49034.252     -48720.544     -47353.317      81134.217      43.291372      26998.952      26557.319      27623.052      26816.485     -612.31598    
      4400   302.25253      312.51458     -49035.776     -48723.262     -47396.105      81096.221      43.284613      26219.948      26908.611      26060.574      25690.659     -832.59087    
      4500   296.55233      306.62085     -49037.676     -48731.055     -47346.075      81111.429      43.287319      27357.205      26534.248      27402.95       28134.417     -994.24099    
      4600   295.84525      305.88976     -49036.418     -48730.529     -47484.066      81169.091      43.297574      24603.621      26199.543      24393.878      23217.441     -42.02745     
      4700   301.16345      311.38852     -49037.383     -48725.994     -47501.815      81212.131      43.305225      24150.954      24613.742      22790.361      25048.759     -678.04049    
      4800   302.35843      312.62408     -49036.168     -48723.544     -47564.789      81214.824      43.305704      22859.505      22619.191      22395.687      23563.636     -708.66434    
      4900   301.48278      311.71869     -49035.718     -48723.999     -47492.853      81156.094      43.295263      24305.177      25459.646      23825.791      23630.093     -108.13437    
      5000   296.92397      307.0051      -49037.026     -48730.021     -47390.762      81128.143      43.290292      26448.631      27028.518      24952.347      27365.027     -160.75377    
      5100   292.46674      302.39654     -49037.389     -48734.992     -47441.976      81145.165      43.293319      25530.052      25773.047      26124.187      24692.924      1797.1949    
      5200   294.9477       304.96173     -49037.112     -48732.151     -47477.36       81177.157      43.299008      24765.547      25083.489      25320.94       23892.212     -1010.23      
      5300   298.93253      309.08185     -49035.926     -48726.844     -47475.345      81161.318      43.296192      24705.393      24976.611      25526.805      23612.763     -384.15854    
      5400   300.44003      310.64053     -49033.283     -48722.642     -47374.78       81119.263      43.288712      26621.466      25896.386      27010.255      26957.756      385.64392    
      5500   300.80621      311.01915     -49033.107     -48722.088     -47342.903      81121.039      43.289028      27239.503      27132.334      27360.05       27226.126     -501.63122    
      5600   297.71216      307.82005     -49034.714     -48726.894     -47419.769      81150.468      43.294262      25806.93       25833.581      25372.457      26214.751      650.1097     
      5700   296.0636       306.11553     -49039.025     -48732.909     -47593.888      81159.22       43.295819      22485.58       22862.059      20980.752      23613.929      367.16715    
      5800   295.58978      305.62562     -49036.337     -48730.711     -47541.254      81159.885      43.295937      23481.075      23286.763      23320.621      23835.84      -1244.3975    
      5900   298.87557      309.02296     -49035.17      -48726.147     -47375.966      81127.058      43.290099      26664.685      27226.687      27226.215      25541.152     -31.214306    
      6000   305.29491      315.66025     -49039.767     -48724.107     -47347.85       81106.237      43.286395      27186.656      27336.858      26424.093      27799.018     -881.67198    
      6100   299.59188      309.76359     -49034.256     -48724.493     -47491.889      81139.358      43.292286      24338.965      24407.65       23811.362      24797.883     -907.94132    
      6200   299.57124      309.74225     -49036.365     -48726.623     -47528.027      81184.972      43.300397      23654.153      23779.607      23525.939      23656.914      1431.9935    
      6300   293.24471      303.20093     -49035.47      -48732.269     -47563.65       81181.939      43.299858      23063.431      23629.995      22702.8        22857.497      480.29914    
      6400   295.74678      305.78795     -49038.742     -48732.954     -47486.702      81137.642      43.291981      24608.977      24914.184      24227.152      24685.596      1065.4631    
      6500   298.37557      308.50598     -49034.639     -48726.133     -47337.382      81106.143      43.286378      27433.468      28207.912      27273.922      26818.571      875.22456    
      6600   301.76092      312.00628     -49034.787     -48722.781     -47362.745      81112.316      43.287476      26864.21       25738.89       26766.577      28087.164      392.39197    
      6700   300.99857      311.21804     -49035.121     -48723.903     -47447.091      81158.376      43.295668      25205.991      25087.037      24634.528      25896.409     -806.21749    
      6800   298.9889       309.14014     -49035.985     -48726.845     -47525.323      81171.522      43.298006      23715.837      23102.522      23788.006      24256.984     -270.47396    
      6900   293.51369      303.47904     -49035.779     -48732.3       -47501.993      81173.687      43.298391      24283.346      24787.792      24064.695      23997.551      617.52659    
      7000   297.3066       307.40073     -49042.19      -48734.79      -47480.136      81138.25       43.292089      24774.709      24272.881      25015.568      25035.678     -758.52121    
      7100   301.66316      311.90519     -49038.634     -48726.728     -47447.24       81131.958      43.29097       25267.059      25743.436      23813.493      26244.247     -846.92319    
      7200   304.43215      314.7682      -49037.135     -48722.367     -47379.872      81118.746      43.28862       26515.628      25364.328      27479.201      26703.356      500.46146    
      7300   301.36013      311.59187     -49033.362     -48721.77      -47266.697      81089.672      43.283448      28749.46       29997.808      27901.949      28348.622      736.86745    
      7400   302.81035      313.09134     -49038.356     -48725.264     -47380.37       81099.689      43.28523       26569.259      26653.368      26546.609      26507.8       -191.00816    
      7500   297.06039      307.14616     -49037.6       -48730.454     -47503.923      81169.656      43.297674      24210.025      24656.46       23232.707      24740.909     -462.10553    
      7600   296.16015      306.21535     -49037.831     -48731.615     -47607.484      81200.574      43.303171      22180.344      22288.572      21497.795      22754.663      6.2785486    
      7700   297.28466      307.37804     -49031.741     -48724.363     -47574.822      81215.293      43.305787      22677.597      22306.165      21889.54       23837.085      174.21365    
      7800   301.94598      312.19762     -49032.388     -48720.19      -47430.213      81159.935      43.295946      25465.415      25492.783      26464.736      24438.726     -156.7178     
      7900   303.69461      314.00562     -49036.72      -48722.715     -47381.955      81137.657      43.291984      26475.169      26168.138      26906.237      26351.132      185.24478    
      8000   298.51324      308.64833     -49035.38      -48726.732     -47330.159      81091.883      43.283841      27592.862      29186.609      28096.869      25495.107      2077.5823    
Loop time of 32.2731 on 8 procs for 8000 steps with 8000 atoms

Performance: 21.417 ns/day, 1.121 hours/ns, 247.885 timesteps/s
99.6% CPU use with 8 MPI tasks x no OpenMP threads

MPI task timing breakdown:
Section |  min time  |  avg time  |  max time  |%varavg| %total
---------------------------------------------------------------
Pair    | 30.271     | 30.747     | 31.335     |   6.1 | 95.27
Neigh   | 0          | 0          | 0          |   0.0 |  0.00
Comm    | 0.49663    | 1.0816     | 1.5573     |  32.6 |  3.35
Output  | 0.0027497  | 0.003416   | 0.0079474  |   2.9 |  0.01
Modify  | 0.38587    | 0.38925    | 0.39158    |   0.2 |  1.21
Other   |            | 0.05137    |            |       |  0.16

Nlocal:           1000 ave        1021 max         983 min
Histogram: 1 0 2 1 2 0 0 1 0 1
Nghost:           2060 ave        2077 max        2039 min
Histogram: 1 0 1 0 0 2 1 2 0 1
Neighs:              0 ave           0 max           0 min
Histogram: 8 0 0 0 0 0 0 0 0 0
FullNghs:        46000 ave       46966 max       45218 min
Histogram: 1 0 2 1 2 0 0 1 0 1

Total # of neighbors = 368000
Ave neighs/atom = 46
Neighbor list builds = 0
Dangerous builds = 0

write_restart   restart_${T0}K${P2}bar.eql
write_restart   restart_300K${P2}bar.eql
write_restart   restart_300K25000bar.eql
System init for write_restart ...

unfix           equi
unfix           eq_out


next i

jump SELF pres_loop




print "Job Complete"
Job Complete
Total wall time: 0:06:59
