# Structure file for 5x5x5 diamondlike SiC (lattice parameter is 4.3596 A)

     8000 atoms

2 atom types

    0.0000    43.596 xlo xhi
    0.0000    43.596 ylo yhi
    0.0000    43.596 zlo zhi
    0.0 0.0 0.0 xy xz yz

Masses

 1   12.0107
 2   28.0855

  Atoms

     1     1    0.000010    0.000010    0.000010
     2     1    0.000010    2.179810    2.179810
     3     1    2.179810    0.000010    2.179810
     4     1    2.179810    2.179810    0.000010
     5     1    0.000010    0.000010    4.359610
     6     1    0.000010    2.179810    6.539410
     7     1    2.179810    0.000010    6.539410
     8     1    2.179810    2.179810    4.359610
     9     1    0.000010    0.000010    8.719210
    10     1    0.000010    2.179810   10.899010
    11     1    2.179810    0.000010   10.899010
    12     1    2.179810    2.179810    8.719210
    13     1    0.000010    0.000010   13.078810
    14     1    0.000010    2.179810   15.258610
    15     1    2.179810    0.000010   15.258610
    16     1    2.179810    2.179810   13.078810
    17     1    0.000010    0.000010   17.438410
    18     1    0.000010    2.179810   19.618210
    19     1    2.179810    0.000010   19.618210
    20     1    2.179810    2.179810   17.438410
    21     1    0.000010    0.000010   21.798010
    22     1    0.000010    2.179810   23.977810
    23     1    2.179810    0.000010   23.977810
    24     1    2.179810    2.179810   21.798010
    25     1    0.000010    0.000010   26.157610
    26     1    0.000010    2.179810   28.337410
    27     1    2.179810    0.000010   28.337410
    28     1    2.179810    2.179810   26.157610
    29     1    0.000010    0.000010   30.517210
    30     1    0.000010    2.179810   32.697011
    31     1    2.179810    0.000010   32.697011
    32     1    2.179810    2.179810   30.517210
    33     1    0.000010    0.000010   34.876811
    34     1    0.000010    2.179810   37.056611
    35     1    2.179810    0.000010   37.056611
    36     1    2.179810    2.179810   34.876811
    37     1    0.000010    0.000010   39.236411
    38     1    0.000010    2.179810   41.416211
    39     1    2.179810    0.000010   41.416211
    40     1    2.179810    2.179810   39.236411
    41     1    0.000010    4.359610    0.000010
    42     1    0.000010    6.539410    2.179810
    43     1    2.179810    4.359610    2.179810
    44     1    2.179810    6.539410    0.000010
    45     1    0.000010    4.359610    4.359610
    46     1    0.000010    6.539410    6.539410
    47     1    2.179810    4.359610    6.539410
    48     1    2.179810    6.539410    4.359610
    49     1    0.000010    4.359610    8.719210
    50     1    0.000010    6.539410   10.899010
    51     1    2.179810    4.359610   10.899010
    52     1    2.179810    6.539410    8.719210
    53     1    0.000010    4.359610   13.078810
    54     1    0.000010    6.539410   15.258610
    55     1    2.179810    4.359610   15.258610
    56     1    2.179810    6.539410   13.078810
    57     1    0.000010    4.359610   17.438410
    58     1    0.000010    6.539410   19.618210
    59     1    2.179810    4.359610   19.618210
    60     1    2.179810    6.539410   17.438410
    61     1    0.000010    4.359610   21.798010
    62     1    0.000010    6.539410   23.977810
    63     1    2.179810    4.359610   23.977810
    64     1    2.179810    6.539410   21.798010
    65     1    0.000010    4.359610   26.157610
    66     1    0.000010    6.539410   28.337410
    67     1    2.179810    4.359610   28.337410
    68     1    2.179810    6.539410   26.157610
    69     1    0.000010    4.359610   30.517210
    70     1    0.000010    6.539410   32.697011
    71     1    2.179810    4.359610   32.697011
    72     1    2.179810    6.539410   30.517210
    73     1    0.000010    4.359610   34.876811
    74     1    0.000010    6.539410   37.056611
    75     1    2.179810    4.359610   37.056611
    76     1    2.179810    6.539410   34.876811
    77     1    0.000010    4.359610   39.236411
    78     1    0.000010    6.539410   41.416211
    79     1    2.179810    4.359610   41.416211
    80     1    2.179810    6.539410   39.236411
    81     1    0.000010    8.719210    0.000010
    82     1    0.000010   10.899010    2.179810
    83     1    2.179810    8.719210    2.179810
    84     1    2.179810   10.899010    0.000010
    85     1    0.000010    8.719210    4.359610
    86     1    0.000010   10.899010    6.539410
    87     1    2.179810    8.719210    6.539410
    88     1    2.179810   10.899010    4.359610
    89     1    0.000010    8.719210    8.719210
    90     1    0.000010   10.899010   10.899010
    91     1    2.179810    8.719210   10.899010
    92     1    2.179810   10.899010    8.719210
    93     1    0.000010    8.719210   13.078810
    94     1    0.000010   10.899010   15.258610
    95     1    2.179810    8.719210   15.258610
    96     1    2.179810   10.899010   13.078810
    97     1    0.000010    8.719210   17.438410
    98     1    0.000010   10.899010   19.618210
    99     1    2.179810    8.719210   19.618210
   100     1    2.179810   10.899010   17.438410
   101     1    0.000010    8.719210   21.798010
   102     1    0.000010   10.899010   23.977810
   103     1    2.179810    8.719210   23.977810
   104     1    2.179810   10.899010   21.798010
   105     1    0.000010    8.719210   26.157610
   106     1    0.000010   10.899010   28.337410
   107     1    2.179810    8.719210   28.337410
   108     1    2.179810   10.899010   26.157610
   109     1    0.000010    8.719210   30.517210
   110     1    0.000010   10.899010   32.697011
   111     1    2.179810    8.719210   32.697011
   112     1    2.179810   10.899010   30.517210
   113     1    0.000010    8.719210   34.876811
   114     1    0.000010   10.899010   37.056611
   115     1    2.179810    8.719210   37.056611
   116     1    2.179810   10.899010   34.876811
   117     1    0.000010    8.719210   39.236411
   118     1    0.000010   10.899010   41.416211
   119     1    2.179810    8.719210   41.416211
   120     1    2.179810   10.899010   39.236411
   121     1    0.000010   13.078810    0.000010
   122     1    0.000010   15.258610    2.179810
   123     1    2.179810   13.078810    2.179810
   124     1    2.179810   15.258610    0.000010
   125     1    0.000010   13.078810    4.359610
   126     1    0.000010   15.258610    6.539410
   127     1    2.179810   13.078810    6.539410
   128     1    2.179810   15.258610    4.359610
   129     1    0.000010   13.078810    8.719210
   130     1    0.000010   15.258610   10.899010
   131     1    2.179810   13.078810   10.899010
   132     1    2.179810   15.258610    8.719210
   133     1    0.000010   13.078810   13.078810
   134     1    0.000010   15.258610   15.258610
   135     1    2.179810   13.078810   15.258610
   136     1    2.179810   15.258610   13.078810
   137     1    0.000010   13.078810   17.438410
   138     1    0.000010   15.258610   19.618210
   139     1    2.179810   13.078810   19.618210
   140     1    2.179810   15.258610   17.438410
   141     1    0.000010   13.078810   21.798010
   142     1    0.000010   15.258610   23.977810
   143     1    2.179810   13.078810   23.977810
   144     1    2.179810   15.258610   21.798010
   145     1    0.000010   13.078810   26.157610
   146     1    0.000010   15.258610   28.337410
   147     1    2.179810   13.078810   28.337410
   148     1    2.179810   15.258610   26.157610
   149     1    0.000010   13.078810   30.517210
   150     1    0.000010   15.258610   32.697011
   151     1    2.179810   13.078810   32.697011
   152     1    2.179810   15.258610   30.517210
   153     1    0.000010   13.078810   34.876811
   154     1    0.000010   15.258610   37.056611
   155     1    2.179810   13.078810   37.056611
   156     1    2.179810   15.258610   34.876811
   157     1    0.000010   13.078810   39.236411
   158     1    0.000010   15.258610   41.416211
   159     1    2.179810   13.078810   41.416211
   160     1    2.179810   15.258610   39.236411
   161     1    0.000010   17.438410    0.000010
   162     1    0.000010   19.618210    2.179810
   163     1    2.179810   17.438410    2.179810
   164     1    2.179810   19.618210    0.000010
   165     1    0.000010   17.438410    4.359610
   166     1    0.000010   19.618210    6.539410
   167     1    2.179810   17.438410    6.539410
   168     1    2.179810   19.618210    4.359610
   169     1    0.000010   17.438410    8.719210
   170     1    0.000010   19.618210   10.899010
   171     1    2.179810   17.438410   10.899010
   172     1    2.179810   19.618210    8.719210
   173     1    0.000010   17.438410   13.078810
   174     1    0.000010   19.618210   15.258610
   175     1    2.179810   17.438410   15.258610
   176     1    2.179810   19.618210   13.078810
   177     1    0.000010   17.438410   17.438410
   178     1    0.000010   19.618210   19.618210
   179     1    2.179810   17.438410   19.618210
   180     1    2.179810   19.618210   17.438410
   181     1    0.000010   17.438410   21.798010
   182     1    0.000010   19.618210   23.977810
   183     1    2.179810   17.438410   23.977810
   184     1    2.179810   19.618210   21.798010
   185     1    0.000010   17.438410   26.157610
   186     1    0.000010   19.618210   28.337410
   187     1    2.179810   17.438410   28.337410
   188     1    2.179810   19.618210   26.157610
   189     1    0.000010   17.438410   30.517210
   190     1    0.000010   19.618210   32.697011
   191     1    2.179810   17.438410   32.697011
   192     1    2.179810   19.618210   30.517210
   193     1    0.000010   17.438410   34.876811
   194     1    0.000010   19.618210   37.056611
   195     1    2.179810   17.438410   37.056611
   196     1    2.179810   19.618210   34.876811
   197     1    0.000010   17.438410   39.236411
   198     1    0.000010   19.618210   41.416211
   199     1    2.179810   17.438410   41.416211
   200     1    2.179810   19.618210   39.236411
   201     1    0.000010   21.798010    0.000010
   202     1    0.000010   23.977810    2.179810
   203     1    2.179810   21.798010    2.179810
   204     1    2.179810   23.977810    0.000010
   205     1    0.000010   21.798010    4.359610
   206     1    0.000010   23.977810    6.539410
   207     1    2.179810   21.798010    6.539410
   208     1    2.179810   23.977810    4.359610
   209     1    0.000010   21.798010    8.719210
   210     1    0.000010   23.977810   10.899010
   211     1    2.179810   21.798010   10.899010
   212     1    2.179810   23.977810    8.719210
   213     1    0.000010   21.798010   13.078810
   214     1    0.000010   23.977810   15.258610
   215     1    2.179810   21.798010   15.258610
   216     1    2.179810   23.977810   13.078810
   217     1    0.000010   21.798010   17.438410
   218     1    0.000010   23.977810   19.618210
   219     1    2.179810   21.798010   19.618210
   220     1    2.179810   23.977810   17.438410
   221     1    0.000010   21.798010   21.798010
   222     1    0.000010   23.977810   23.977810
   223     1    2.179810   21.798010   23.977810
   224     1    2.179810   23.977810   21.798010
   225     1    0.000010   21.798010   26.157610
   226     1    0.000010   23.977810   28.337410
   227     1    2.179810   21.798010   28.337410
   228     1    2.179810   23.977810   26.157610
   229     1    0.000010   21.798010   30.517210
   230     1    0.000010   23.977810   32.697011
   231     1    2.179810   21.798010   32.697011
   232     1    2.179810   23.977810   30.517210
   233     1    0.000010   21.798010   34.876811
   234     1    0.000010   23.977810   37.056611
   235     1    2.179810   21.798010   37.056611
   236     1    2.179810   23.977810   34.876811
   237     1    0.000010   21.798010   39.236411
   238     1    0.000010   23.977810   41.416211
   239     1    2.179810   21.798010   41.416211
   240     1    2.179810   23.977810   39.236411
   241     1    0.000010   26.157610    0.000010
   242     1    0.000010   28.337410    2.179810
   243     1    2.179810   26.157610    2.179810
   244     1    2.179810   28.337410    0.000010
   245     1    0.000010   26.157610    4.359610
   246     1    0.000010   28.337410    6.539410
   247     1    2.179810   26.157610    6.539410
   248     1    2.179810   28.337410    4.359610
   249     1    0.000010   26.157610    8.719210
   250     1    0.000010   28.337410   10.899010
   251     1    2.179810   26.157610   10.899010
   252     1    2.179810   28.337410    8.719210
   253     1    0.000010   26.157610   13.078810
   254     1    0.000010   28.337410   15.258610
   255     1    2.179810   26.157610   15.258610
   256     1    2.179810   28.337410   13.078810
   257     1    0.000010   26.157610   17.438410
   258     1    0.000010   28.337410   19.618210
   259     1    2.179810   26.157610   19.618210
   260     1    2.179810   28.337410   17.438410
   261     1    0.000010   26.157610   21.798010
   262     1    0.000010   28.337410   23.977810
   263     1    2.179810   26.157610   23.977810
   264     1    2.179810   28.337410   21.798010
   265     1    0.000010   26.157610   26.157610
   266     1    0.000010   28.337410   28.337410
   267     1    2.179810   26.157610   28.337410
   268     1    2.179810   28.337410   26.157610
   269     1    0.000010   26.157610   30.517210
   270     1    0.000010   28.337410   32.697011
   271     1    2.179810   26.157610   32.697011
   272     1    2.179810   28.337410   30.517210
   273     1    0.000010   26.157610   34.876811
   274     1    0.000010   28.337410   37.056611
   275     1    2.179810   26.157610   37.056611
   276     1    2.179810   28.337410   34.876811
   277     1    0.000010   26.157610   39.236411
   278     1    0.000010   28.337410   41.416211
   279     1    2.179810   26.157610   41.416211
   280     1    2.179810   28.337410   39.236411
   281     1    0.000010   30.517210    0.000010
   282     1    0.000010   32.697011    2.179810
   283     1    2.179810   30.517210    2.179810
   284     1    2.179810   32.697011    0.000010
   285     1    0.000010   30.517210    4.359610
   286     1    0.000010   32.697011    6.539410
   287     1    2.179810   30.517210    6.539410
   288     1    2.179810   32.697011    4.359610
   289     1    0.000010   30.517210    8.719210
   290     1    0.000010   32.697011   10.899010
   291     1    2.179810   30.517210   10.899010
   292     1    2.179810   32.697011    8.719210
   293     1    0.000010   30.517210   13.078810
   294     1    0.000010   32.697011   15.258610
   295     1    2.179810   30.517210   15.258610
   296     1    2.179810   32.697011   13.078810
   297     1    0.000010   30.517210   17.438410
   298     1    0.000010   32.697011   19.618210
   299     1    2.179810   30.517210   19.618210
   300     1    2.179810   32.697011   17.438410
   301     1    0.000010   30.517210   21.798010
   302     1    0.000010   32.697011   23.977810
   303     1    2.179810   30.517210   23.977810
   304     1    2.179810   32.697011   21.798010
   305     1    0.000010   30.517210   26.157610
   306     1    0.000010   32.697011   28.337410
   307     1    2.179810   30.517210   28.337410
   308     1    2.179810   32.697011   26.157610
   309     1    0.000010   30.517210   30.517210
   310     1    0.000010   32.697011   32.697011
   311     1    2.179810   30.517210   32.697011
   312     1    2.179810   32.697011   30.517210
   313     1    0.000010   30.517210   34.876811
   314     1    0.000010   32.697011   37.056611
   315     1    2.179810   30.517210   37.056611
   316     1    2.179810   32.697011   34.876811
   317     1    0.000010   30.517210   39.236411
   318     1    0.000010   32.697011   41.416211
   319     1    2.179810   30.517210   41.416211
   320     1    2.179810   32.697011   39.236411
   321     1    0.000010   34.876811    0.000010
   322     1    0.000010   37.056611    2.179810
   323     1    2.179810   34.876811    2.179810
   324     1    2.179810   37.056611    0.000010
   325     1    0.000010   34.876811    4.359610
   326     1    0.000010   37.056611    6.539410
   327     1    2.179810   34.876811    6.539410
   328     1    2.179810   37.056611    4.359610
   329     1    0.000010   34.876811    8.719210
   330     1    0.000010   37.056611   10.899010
   331     1    2.179810   34.876811   10.899010
   332     1    2.179810   37.056611    8.719210
   333     1    0.000010   34.876811   13.078810
   334     1    0.000010   37.056611   15.258610
   335     1    2.179810   34.876811   15.258610
   336     1    2.179810   37.056611   13.078810
   337     1    0.000010   34.876811   17.438410
   338     1    0.000010   37.056611   19.618210
   339     1    2.179810   34.876811   19.618210
   340     1    2.179810   37.056611   17.438410
   341     1    0.000010   34.876811   21.798010
   342     1    0.000010   37.056611   23.977810
   343     1    2.179810   34.876811   23.977810
   344     1    2.179810   37.056611   21.798010
   345     1    0.000010   34.876811   26.157610
   346     1    0.000010   37.056611   28.337410
   347     1    2.179810   34.876811   28.337410
   348     1    2.179810   37.056611   26.157610
   349     1    0.000010   34.876811   30.517210
   350     1    0.000010   37.056611   32.697011
   351     1    2.179810   34.876811   32.697011
   352     1    2.179810   37.056611   30.517210
   353     1    0.000010   34.876811   34.876811
   354     1    0.000010   37.056611   37.056611
   355     1    2.179810   34.876811   37.056611
   356     1    2.179810   37.056611   34.876811
   357     1    0.000010   34.876811   39.236411
   358     1    0.000010   37.056611   41.416211
   359     1    2.179810   34.876811   41.416211
   360     1    2.179810   37.056611   39.236411
   361     1    0.000010   39.236411    0.000010
   362     1    0.000010   41.416211    2.179810
   363     1    2.179810   39.236411    2.179810
   364     1    2.179810   41.416211    0.000010
   365     1    0.000010   39.236411    4.359610
   366     1    0.000010   41.416211    6.539410
   367     1    2.179810   39.236411    6.539410
   368     1    2.179810   41.416211    4.359610
   369     1    0.000010   39.236411    8.719210
   370     1    0.000010   41.416211   10.899010
   371     1    2.179810   39.236411   10.899010
   372     1    2.179810   41.416211    8.719210
   373     1    0.000010   39.236411   13.078810
   374     1    0.000010   41.416211   15.258610
   375     1    2.179810   39.236411   15.258610
   376     1    2.179810   41.416211   13.078810
   377     1    0.000010   39.236411   17.438410
   378     1    0.000010   41.416211   19.618210
   379     1    2.179810   39.236411   19.618210
   380     1    2.179810   41.416211   17.438410
   381     1    0.000010   39.236411   21.798010
   382     1    0.000010   41.416211   23.977810
   383     1    2.179810   39.236411   23.977810
   384     1    2.179810   41.416211   21.798010
   385     1    0.000010   39.236411   26.157610
   386     1    0.000010   41.416211   28.337410
   387     1    2.179810   39.236411   28.337410
   388     1    2.179810   41.416211   26.157610
   389     1    0.000010   39.236411   30.517210
   390     1    0.000010   41.416211   32.697011
   391     1    2.179810   39.236411   32.697011
   392     1    2.179810   41.416211   30.517210
   393     1    0.000010   39.236411   34.876811
   394     1    0.000010   41.416211   37.056611
   395     1    2.179810   39.236411   37.056611
   396     1    2.179810   41.416211   34.876811
   397     1    0.000010   39.236411   39.236411
   398     1    0.000010   41.416211   41.416211
   399     1    2.179810   39.236411   41.416211
   400     1    2.179810   41.416211   39.236411
   401     1    4.359610    0.000010    0.000010
   402     1    4.359610    2.179810    2.179810
   403     1    6.539410    0.000010    2.179810
   404     1    6.539410    2.179810    0.000010
   405     1    4.359610    0.000010    4.359610
   406     1    4.359610    2.179810    6.539410
   407     1    6.539410    0.000010    6.539410
   408     1    6.539410    2.179810    4.359610
   409     1    4.359610    0.000010    8.719210
   410     1    4.359610    2.179810   10.899010
   411     1    6.539410    0.000010   10.899010
   412     1    6.539410    2.179810    8.719210
   413     1    4.359610    0.000010   13.078810
   414     1    4.359610    2.179810   15.258610
   415     1    6.539410    0.000010   15.258610
   416     1    6.539410    2.179810   13.078810
   417     1    4.359610    0.000010   17.438410
   418     1    4.359610    2.179810   19.618210
   419     1    6.539410    0.000010   19.618210
   420     1    6.539410    2.179810   17.438410
   421     1    4.359610    0.000010   21.798010
   422     1    4.359610    2.179810   23.977810
   423     1    6.539410    0.000010   23.977810
   424     1    6.539410    2.179810   21.798010
   425     1    4.359610    0.000010   26.157610
   426     1    4.359610    2.179810   28.337410
   427     1    6.539410    0.000010   28.337410
   428     1    6.539410    2.179810   26.157610
   429     1    4.359610    0.000010   30.517210
   430     1    4.359610    2.179810   32.697011
   431     1    6.539410    0.000010   32.697011
   432     1    6.539410    2.179810   30.517210
   433     1    4.359610    0.000010   34.876811
   434     1    4.359610    2.179810   37.056611
   435     1    6.539410    0.000010   37.056611
   436     1    6.539410    2.179810   34.876811
   437     1    4.359610    0.000010   39.236411
   438     1    4.359610    2.179810   41.416211
   439     1    6.539410    0.000010   41.416211
   440     1    6.539410    2.179810   39.236411
   441     1    4.359610    4.359610    0.000010
   442     1    4.359610    6.539410    2.179810
   443     1    6.539410    4.359610    2.179810
   444     1    6.539410    6.539410    0.000010
   445     1    4.359610    4.359610    4.359610
   446     1    4.359610    6.539410    6.539410
   447     1    6.539410    4.359610    6.539410
   448     1    6.539410    6.539410    4.359610
   449     1    4.359610    4.359610    8.719210
   450     1    4.359610    6.539410   10.899010
   451     1    6.539410    4.359610   10.899010
   452     1    6.539410    6.539410    8.719210
   453     1    4.359610    4.359610   13.078810
   454     1    4.359610    6.539410   15.258610
   455     1    6.539410    4.359610   15.258610
   456     1    6.539410    6.539410   13.078810
   457     1    4.359610    4.359610   17.438410
   458     1    4.359610    6.539410   19.618210
   459     1    6.539410    4.359610   19.618210
   460     1    6.539410    6.539410   17.438410
   461     1    4.359610    4.359610   21.798010
   462     1    4.359610    6.539410   23.977810
   463     1    6.539410    4.359610   23.977810
   464     1    6.539410    6.539410   21.798010
   465     1    4.359610    4.359610   26.157610
   466     1    4.359610    6.539410   28.337410
   467     1    6.539410    4.359610   28.337410
   468     1    6.539410    6.539410   26.157610
   469     1    4.359610    4.359610   30.517210
   470     1    4.359610    6.539410   32.697011
   471     1    6.539410    4.359610   32.697011
   472     1    6.539410    6.539410   30.517210
   473     1    4.359610    4.359610   34.876811
   474     1    4.359610    6.539410   37.056611
   475     1    6.539410    4.359610   37.056611
   476     1    6.539410    6.539410   34.876811
   477     1    4.359610    4.359610   39.236411
   478     1    4.359610    6.539410   41.416211
   479     1    6.539410    4.359610   41.416211
   480     1    6.539410    6.539410   39.236411
   481     1    4.359610    8.719210    0.000010
   482     1    4.359610   10.899010    2.179810
   483     1    6.539410    8.719210    2.179810
   484     1    6.539410   10.899010    0.000010
   485     1    4.359610    8.719210    4.359610
   486     1    4.359610   10.899010    6.539410
   487     1    6.539410    8.719210    6.539410
   488     1    6.539410   10.899010    4.359610
   489     1    4.359610    8.719210    8.719210
   490     1    4.359610   10.899010   10.899010
   491     1    6.539410    8.719210   10.899010
   492     1    6.539410   10.899010    8.719210
   493     1    4.359610    8.719210   13.078810
   494     1    4.359610   10.899010   15.258610
   495     1    6.539410    8.719210   15.258610
   496     1    6.539410   10.899010   13.078810
   497     1    4.359610    8.719210   17.438410
   498     1    4.359610   10.899010   19.618210
   499     1    6.539410    8.719210   19.618210
   500     1    6.539410   10.899010   17.438410
   501     1    4.359610    8.719210   21.798010
   502     1    4.359610   10.899010   23.977810
   503     1    6.539410    8.719210   23.977810
   504     1    6.539410   10.899010   21.798010
   505     1    4.359610    8.719210   26.157610
   506     1    4.359610   10.899010   28.337410
   507     1    6.539410    8.719210   28.337410
   508     1    6.539410   10.899010   26.157610
   509     1    4.359610    8.719210   30.517210
   510     1    4.359610   10.899010   32.697011
   511     1    6.539410    8.719210   32.697011
   512     1    6.539410   10.899010   30.517210
   513     1    4.359610    8.719210   34.876811
   514     1    4.359610   10.899010   37.056611
   515     1    6.539410    8.719210   37.056611
   516     1    6.539410   10.899010   34.876811
   517     1    4.359610    8.719210   39.236411
   518     1    4.359610   10.899010   41.416211
   519     1    6.539410    8.719210   41.416211
   520     1    6.539410   10.899010   39.236411
   521     1    4.359610   13.078810    0.000010
   522     1    4.359610   15.258610    2.179810
   523     1    6.539410   13.078810    2.179810
   524     1    6.539410   15.258610    0.000010
   525     1    4.359610   13.078810    4.359610
   526     1    4.359610   15.258610    6.539410
   527     1    6.539410   13.078810    6.539410
   528     1    6.539410   15.258610    4.359610
   529     1    4.359610   13.078810    8.719210
   530     1    4.359610   15.258610   10.899010
   531     1    6.539410   13.078810   10.899010
   532     1    6.539410   15.258610    8.719210
   533     1    4.359610   13.078810   13.078810
   534     1    4.359610   15.258610   15.258610
   535     1    6.539410   13.078810   15.258610
   536     1    6.539410   15.258610   13.078810
   537     1    4.359610   13.078810   17.438410
   538     1    4.359610   15.258610   19.618210
   539     1    6.539410   13.078810   19.618210
   540     1    6.539410   15.258610   17.438410
   541     1    4.359610   13.078810   21.798010
   542     1    4.359610   15.258610   23.977810
   543     1    6.539410   13.078810   23.977810
   544     1    6.539410   15.258610   21.798010
   545     1    4.359610   13.078810   26.157610
   546     1    4.359610   15.258610   28.337410
   547     1    6.539410   13.078810   28.337410
   548     1    6.539410   15.258610   26.157610
   549     1    4.359610   13.078810   30.517210
   550     1    4.359610   15.258610   32.697011
   551     1    6.539410   13.078810   32.697011
   552     1    6.539410   15.258610   30.517210
   553     1    4.359610   13.078810   34.876811
   554     1    4.359610   15.258610   37.056611
   555     1    6.539410   13.078810   37.056611
   556     1    6.539410   15.258610   34.876811
   557     1    4.359610   13.078810   39.236411
   558     1    4.359610   15.258610   41.416211
   559     1    6.539410   13.078810   41.416211
   560     1    6.539410   15.258610   39.236411
   561     1    4.359610   17.438410    0.000010
   562     1    4.359610   19.618210    2.179810
   563     1    6.539410   17.438410    2.179810
   564     1    6.539410   19.618210    0.000010
   565     1    4.359610   17.438410    4.359610
   566     1    4.359610   19.618210    6.539410
   567     1    6.539410   17.438410    6.539410
   568     1    6.539410   19.618210    4.359610
   569     1    4.359610   17.438410    8.719210
   570     1    4.359610   19.618210   10.899010
   571     1    6.539410   17.438410   10.899010
   572     1    6.539410   19.618210    8.719210
   573     1    4.359610   17.438410   13.078810
   574     1    4.359610   19.618210   15.258610
   575     1    6.539410   17.438410   15.258610
   576     1    6.539410   19.618210   13.078810
   577     1    4.359610   17.438410   17.438410
   578     1    4.359610   19.618210   19.618210
   579     1    6.539410   17.438410   19.618210
   580     1    6.539410   19.618210   17.438410
   581     1    4.359610   17.438410   21.798010
   582     1    4.359610   19.618210   23.977810
   583     1    6.539410   17.438410   23.977810
   584     1    6.539410   19.618210   21.798010
   585     1    4.359610   17.438410   26.157610
   586     1    4.359610   19.618210   28.337410
   587     1    6.539410   17.438410   28.337410
   588     1    6.539410   19.618210   26.157610
   589     1    4.359610   17.438410   30.517210
   590     1    4.359610   19.618210   32.697011
   591     1    6.539410   17.438410   32.697011
   592     1    6.539410   19.618210   30.517210
   593     1    4.359610   17.438410   34.876811
   594     1    4.359610   19.618210   37.056611
   595     1    6.539410   17.438410   37.056611
   596     1    6.539410   19.618210   34.876811
   597     1    4.359610   17.438410   39.236411
   598     1    4.359610   19.618210   41.416211
   599     1    6.539410   17.438410   41.416211
   600     1    6.539410   19.618210   39.236411
   601     1    4.359610   21.798010    0.000010
   602     1    4.359610   23.977810    2.179810
   603     1    6.539410   21.798010    2.179810
   604     1    6.539410   23.977810    0.000010
   605     1    4.359610   21.798010    4.359610
   606     1    4.359610   23.977810    6.539410