# Structure file for 5x5x5 diamondlike SiC (lattice parameter is 4.3596 A)

     1000 atoms

2 atom types

    0.0000    21.798 xlo xhi
    0.0000    21.798 ylo yhi
    0.0000    21.798 zlo zhi
    0.0 0.0 0.0 xy xz yz

Masses

 1   12.0107
 2   28.0855

  Atoms

     1     1    0.000010    0.000010    0.000010
     2     1    0.000010    2.179810    2.179810
     3     1    2.179810    0.000010    2.179810
     4     1    2.179810    2.179810    0.000010
     5     1    0.000010    0.000010    4.359610
     6     1    0.000010    2.179810    6.539410
     7     1    2.179810    0.000010    6.539410
     8     1    2.179810    2.179810    4.359610
     9     1    0.000010    0.000010    8.719210
    10     1    0.000010    2.179810   10.899010
    11     1    2.179810    0.000010   10.899010
    12     1    2.179810    2.179810    8.719210
    13     1    0.000010    0.000010   13.078810
    14     1    0.000010    2.179810   15.258610
    15     1    2.179810    0.000010   15.258610
    16     1    2.179810    2.179810   13.078810
    17     1    0.000010    0.000010   17.438410
    18     1    0.000010    2.179810   19.618210
    19     1    2.179810    0.000010   19.618210
    20     1    2.179810    2.179810   17.438410
    21     1    0.000010    4.359610    0.000010
    22     1    0.000010    6.539410    2.179810
    23     1    2.179810    4.359610    2.179810
    24     1    2.179810    6.539410    0.000010
    25     1    0.000010    4.359610    4.359610
    26     1    0.000010    6.539410    6.539410
    27     1    2.179810    4.359610    6.539410
    28     1    2.179810    6.539410    4.359610
    29     1    0.000010    4.359610    8.719210
    30     1    0.000010    6.539410   10.899010
    31     1    2.179810    4.359610   10.899010
    32     1    2.179810    6.539410    8.719210
    33     1    0.000010    4.359610   13.078810
    34     1    0.000010    6.539410   15.258610
    35     1    2.179810    4.359610   15.258610
    36     1    2.179810    6.539410   13.078810
    37     1    0.000010    4.359610   17.438410
    38     1    0.000010    6.539410   19.618210
    39     1    2.179810    4.359610   19.618210
    40     1    2.179810    6.539410   17.438410
    41     1    0.000010    8.719210    0.000010
    42     1    0.000010   10.899010    2.179810
    43     1    2.179810    8.719210    2.179810
    44     1    2.179810   10.899010    0.000010
    45     1    0.000010    8.719210    4.359610
    46     1    0.000010   10.899010    6.539410
    47     1    2.179810    8.719210    6.539410
    48     1    2.179810   10.899010    4.359610
    49     1    0.000010    8.719210    8.719210
    50     1    0.000010   10.899010   10.899010
    51     1    2.179810    8.719210   10.899010
    52     1    2.179810   10.899010    8.719210
    53     1    0.000010    8.719210   13.078810
    54     1    0.000010   10.899010   15.258610
    55     1    2.179810    8.719210   15.258610
    56     1    2.179810   10.899010   13.078810
    57     1    0.000010    8.719210   17.438410
    58     1    0.000010   10.899010   19.618210
    59     1    2.179810    8.719210   19.618210
    60     1    2.179810   10.899010   17.438410
    61     1    0.000010   13.078810    0.000010
    62     1    0.000010   15.258610    2.179810
    63     1    2.179810   13.078810    2.179810
    64     1    2.179810   15.258610    0.000010
    65     1    0.000010   13.078810    4.359610
    66     1    0.000010   15.258610    6.539410
    67     1    2.179810   13.078810    6.539410
    68     1    2.179810   15.258610    4.359610
    69     1    0.000010   13.078810    8.719210
    70     1    0.000010   15.258610   10.899010
    71     1    2.179810   13.078810   10.899010
    72     1    2.179810   15.258610    8.719210
    73     1    0.000010   13.078810   13.078810
    74     1    0.000010   15.258610   15.258610
    75     1    2.179810   13.078810   15.258610
    76     1    2.179810   15.258610   13.078810
    77     1    0.000010   13.078810   17.438410
    78     1    0.000010   15.258610   19.618210
    79     1    2.179810   13.078810   19.618210
    80     1    2.179810   15.258610   17.438410
    81     1    0.000010   17.438410    0.000010
    82     1    0.000010   19.618210    2.179810
    83     1    2.179810   17.438410    2.179810
    84     1    2.179810   19.618210    0.000010
    85     1    0.000010   17.438410    4.359610
    86     1    0.000010   19.618210    6.539410
    87     1    2.179810   17.438410    6.539410
    88     1    2.179810   19.618210    4.359610
    89     1    0.000010   17.438410    8.719210
    90     1    0.000010   19.618210   10.899010
    91     1    2.179810   17.438410   10.899010
    92     1    2.179810   19.618210    8.719210
    93     1    0.000010   17.438410   13.078810
    94     1    0.000010   19.618210   15.258610
    95     1    2.179810   17.438410   15.258610
    96     1    2.179810   19.618210   13.078810
    97     1    0.000010   17.438410   17.438410
    98     1    0.000010   19.618210   19.618210
    99     1    2.179810   17.438410   19.618210
   100     1    2.179810   19.618210   17.438410
   101     1    4.359610    0.000010    0.000010
   102     1    4.359610    2.179810    2.179810
   103     1    6.539410    0.000010    2.179810
   104     1    6.539410    2.179810    0.000010
   105     1    4.359610    0.000010    4.359610
   106     1    4.359610    2.179810    6.539410
   107     1    6.539410    0.000010    6.539410
   108     1    6.539410    2.179810    4.359610
   109     1    4.359610    0.000010    8.719210
   110     1    4.359610    2.179810   10.899010
   111     1    6.539410    0.000010   10.899010
   112     1    6.539410    2.179810    8.719210
   113     1    4.359610    0.000010   13.078810
   114     1    4.359610    2.179810   15.258610
   115     1    6.539410    0.000010   15.258610
   116     1    6.539410    2.179810   13.078810
   117     1    4.359610    0.000010   17.438410
   118     1    4.359610    2.179810   19.618210
   119     1    6.539410    0.000010   19.618210
   120     1    6.539410    2.179810   17.438410
   121     1    4.359610    4.359610    0.000010
   122     1    4.359610    6.539410    2.179810
   123     1    6.539410    4.359610    2.179810
   124     1    6.539410    6.539410    0.000010
   125     1    4.359610    4.359610    4.359610
   126     1    4.359610    6.539410    6.539410
   127     1    6.539410    4.359610    6.539410
   128     1    6.539410    6.539410    4.359610
   129     1    4.359610    4.359610    8.719210
   130     1    4.359610    6.539410   10.899010
   131     1    6.539410    4.359610   10.899010
   132     1    6.539410    6.539410    8.719210
   133     1    4.359610    4.359610   13.078810
   134     1    4.359610    6.539410   15.258610
   135     1    6.539410    4.359610   15.258610
   136     1    6.539410    6.539410   13.078810
   137     1    4.359610    4.359610   17.438410
   138     1    4.359610    6.539410   19.618210
   139     1    6.539410    4.359610   19.618210
   140     1    6.539410    6.539410   17.438410
   141     1    4.359610    8.719210    0.000010
   142     1    4.359610   10.899010    2.179810
   143     1    6.539410    8.719210    2.179810
   144     1    6.539410   10.899010    0.000010
   145     1    4.359610    8.719210    4.359610
   146     1    4.359610   10.899010    6.539410
   147     1    6.539410    8.719210    6.539410
   148     1    6.539410   10.899010    4.359610
   149     1    4.359610    8.719210    8.719210
   150     1    4.359610   10.899010   10.899010
   151     1    6.539410    8.719210   10.899010
   152     1    6.539410   10.899010    8.719210
   153     1    4.359610    8.719210   13.078810
   154     1    4.359610   10.899010   15.258610
   155     1    6.539410    8.719210   15.258610
   156     1    6.539410   10.899010   13.078810
   157     1    4.359610    8.719210   17.438410
   158     1    4.359610   10.899010   19.618210
   159     1    6.539410    8.719210   19.618210
   160     1    6.539410   10.899010   17.438410
   161     1    4.359610   13.078810    0.000010
   162     1    4.359610   15.258610    2.179810
   163     1    6.539410   13.078810    2.179810
   164     1    6.539410   15.258610    0.000010
   165     1    4.359610   13.078810    4.359610
   166     1    4.359610   15.258610    6.539410
   167     1    6.539410   13.078810    6.539410
   168     1    6.539410   15.258610    4.359610
   169     1    4.359610   13.078810    8.719210
   170     1    4.359610   15.258610   10.899010
   171     1    6.539410   13.078810   10.899010
   172     1    6.539410   15.258610    8.719210
   173     1    4.359610   13.078810   13.078810
   174     1    4.359610   15.258610   15.258610
   175     1    6.539410   13.078810   15.258610
   176     1    6.539410   15.258610   13.078810
   177     1    4.359610   13.078810   17.438410
   178     1    4.359610   15.258610   19.618210
   179     1    6.539410   13.078810   19.618210
   180     1    6.539410   15.258610   17.438410
   181     1    4.359610   17.438410    0.000010
   182     1    4.359610   19.618210    2.179810
   183     1    6.539410   17.438410    2.179810
   184     1    6.539410   19.618210    0.000010
   185     1    4.359610   17.438410    4.359610
   186     1    4.359610   19.618210    6.539410
   187     1    6.539410   17.438410    6.539410
   188     1    6.539410   19.618210    4.359610
   189     1    4.359610   17.438410    8.719210
   190     1    4.359610   19.618210   10.899010
   191     1    6.539410   17.438410   10.899010
   192     1    6.539410   19.618210    8.719210
   193     1    4.359610   17.438410   13.078810
   194     1    4.359610   19.618210   15.258610
   195     1    6.539410   17.438410   15.258610
   196     1    6.539410   19.618210   13.078810
   197     1    4.359610   17.438410   17.438410
   198     1    4.359610   19.618210   19.618210
   199     1    6.539410   17.438410   19.618210
   200     1    6.539410   19.618210   17.438410
   201     1    8.719210    0.000010    0.000010
   202     1    8.719210    2.179810    2.179810
   203     1   10.899010    0.000010    2.179810
   204     1   10.899010    2.179810    0.000010
   205     1    8.719210    0.000010    4.359610
   206     1    8.719210    2.179810    6.539410
   207     1   10.899010    0.000010    6.539410
   208     1   10.899010    2.179810    4.359610
   209     1    8.719210    0.000010    8.719210
   210     1    8.719210    2.179810   10.899010
   211     1   10.899010    0.000010   10.899010
   212     1   10.899010    2.179810    8.719210
   213     1    8.719210    0.000010   13.078810
   214     1    8.719210    2.179810   15.258610
   215     1   10.899010    0.000010   15.258610
   216     1   10.899010    2.179810   13.078810
   217     1    8.719210    0.000010   17.438410
   218     1    8.719210    2.179810   19.618210
   219     1   10.899010    0.000010   19.618210
   220     1   10.899010    2.179810   17.438410
   221     1    8.719210    4.359610    0.000010
   222     1    8.719210    6.539410    2.179810
   223     1   10.899010    4.359610    2.179810
   224     1   10.899010    6.539410    0.000010
   225     1    8.719210    4.359610    4.359610
   226     1    8.719210    6.539410    6.539410
   227     1   10.899010    4.359610    6.539410
   228     1   10.899010    6.539410    4.359610
   229     1    8.719210    4.359610    8.719210
   230     1    8.719210    6.539410   10.899010
   231     1   10.899010    4.359610   10.899010
   232     1   10.899010    6.539410    8.719210
   233     1    8.719210    4.359610   13.078810
   234     1    8.719210    6.539410   15.258610
   235     1   10.899010    4.359610   15.258610
   236     1   10.899010    6.539410   13.078810
   237     1    8.719210    4.359610   17.438410
   238     1    8.719210    6.539410   19.618210
   239     1   10.899010    4.359610   19.618210
   240     1   10.899010    6.539410   17.438410
   241     1    8.719210    8.719210    0.000010
   242     1    8.719210   10.899010    2.179810
   243     1   10.899010    8.719210    2.179810
   244     1   10.899010   10.899010    0.000010
   245     1    8.719210    8.719210    4.359610
   246     1    8.719210   10.899010    6.539410
   247     1   10.899010    8.719210    6.539410
   248     1   10.899010   10.899010    4.359610
   249     1    8.719210    8.719210    8.719210
   250     1    8.719210   10.899010   10.899010
   251     1   10.899010    8.719210   10.899010
   252     1   10.899010   10.899010    8.719210
   253     1    8.719210    8.719210   13.078810
   254     1    8.719210   10.899010   15.258610
   255     1   10.899010    8.719210   15.258610
   256     1   10.899010   10.899010   13.078810
   257     1    8.719210    8.719210   17.438410
   258     1    8.719210   10.899010   19.618210
   259     1   10.899010    8.719210   19.618210
   260     1   10.899010   10.899010   17.438410
   261     1    8.719210   13.078810    0.000010
   262     1    8.719210   15.258610    2.179810
   263     1   10.899010   13.078810    2.179810
   264     1   10.899010   15.258610    0.000010
   265     1    8.719210   13.078810    4.359610
   266     1    8.719210   15.258610    6.539410
   267     1   10.899010   13.078810    6.539410
   268     1   10.899010   15.258610    4.359610
   269     1    8.719210   13.078810    8.719210
   270     1    8.719210   15.258610   10.899010
   271     1   10.899010   13.078810   10.899010
   272     1   10.899010   15.258610    8.719210
   273     1    8.719210   13.078810   13.078810
   274     1    8.719210   15.258610   15.258610
   275     1   10.899010   13.078810   15.258610
   276     1   10.899010   15.258610   13.078810
   277     1    8.719210   13.078810   17.438410
   278     1    8.719210   15.258610   19.618210
   279     1   10.899010   13.078810   19.618210
   280     1   10.899010   15.258610   17.438410
   281     1    8.719210   17.438410    0.000010
   282     1    8.719210   19.618210    2.179810
   283     1   10.899010   17.438410    2.179810
   284     1   10.899010   19.618210    0.000010
   285     1    8.719210   17.438410    4.359610
   286     1    8.719210   19.618210    6.539410
   287     1   10.899010   17.438410    6.539410
   288     1   10.899010   19.618210    4.359610
   289     1    8.719210   17.438410    8.719210
   290     1    8.719210   19.618210   10.899010
   291     1   10.899010   17.438410   10.899010
   292     1   10.899010   19.618210    8.719210
   293     1    8.719210   17.438410   13.078810
   294     1    8.719210   19.618210   15.258610
   295     1   10.899010   17.438410   15.258610
   296     1   10.899010   19.618210   13.078810
   297     1    8.719210   17.438410   17.438410
   298     1    8.719210   19.618210   19.618210
   299     1   10.899010   17.438410   19.618210
   300     1   10.899010   19.618210   17.438410
   301     1   13.078810    0.000010    0.000010
   302     1   13.078810    2.179810    2.179810
   303     1   15.258610    0.000010    2.179810
   304     1   15.258610    2.179810    0.000010
   305     1   13.078810    0.000010    4.359610
   306     1   13.078810    2.179810    6.539410
   307     1   15.258610    0.000010    6.539410
   308     1   15.258610    2.179810    4.359610
   309     1   13.078810    0.000010    8.719210
   310     1   13.078810    2.179810   10.899010
   311     1   15.258610    0.000010   10.899010
   312     1   15.258610    2.179810    8.719210
   313     1   13.078810    0.000010   13.078810
   314     1   13.078810    2.179810   15.258610
   315     1   15.258610    0.000010   15.258610
   316     1   15.258610    2.179810   13.078810
   317     1   13.078810    0.000010   17.438410
   318     1   13.078810    2.179810   19.618210
   319     1   15.258610    0.000010   19.618210
   320     1   15.258610    2.179810   17.438410
   321     1   13.078810    4.359610    0.000010
   322     1   13.078810    6.539410    2.179810
   323     1   15.258610    4.359610    2.179810
   324     1   15.258610    6.539410    0.000010
   325     1   13.078810    4.359610    4.359610
   326     1   13.078810    6.539410    6.539410
   327     1   15.258610    4.359610    6.539410
   328     1   15.258610    6.539410    4.359610
   329     1   13.078810    4.359610    8.719210
   330     1   13.078810    6.539410   10.899010
   331     1   15.258610    4.359610   10.899010
   332     1   15.258610    6.539410    8.719210
   333     1   13.078810    4.359610   13.078810
   334     1   13.078810    6.539410   15.258610
   335     1   15.258610    4.359610   15.258610
   336     1   15.258610    6.539410   13.078810
   337     1   13.078810    4.359610   17.438410
   338     1   13.078810    6.539410   19.618210
   339     1   15.258610    4.359610   19.618210
   340     1   15.258610    6.539410   17.438410
   341     1   13.078810    8.719210    0.000010
   342     1   13.078810   10.899010    2.179810
   343     1   15.258610    8.719210    2.179810
   344     1   15.258610   10.899010    0.000010
   345     1   13.078810    8.719210    4.359610
   346     1   13.078810   10.899010    6.539410
   347     1   15.258610    8.719210    6.539410
   348     1   15.258610   10.899010    4.359610
   349     1   13.078810    8.719210    8.719210
   350     1   13.078810   10.899010   10.899010
   351     1   15.258610    8.719210   10.899010
   352     1   15.258610   10.899010    8.719210
   353     1   13.078810    8.719210   13.078810
   354     1   13.078810   10.899010   15.258610
   355     1   15.258610    8.719210   15.258610
   356     1   15.258610   10.899010   13.078810
   357     1   13.078810    8.719210   17.438410
   358     1   13.078810   10.899010   19.618210
   359     1   15.258610    8.719210   19.618210
   360     1   15.258610   10.899010   17.438410
   361     1   13.078810   13.078810    0.000010
   362     1   13.078810   15.258610    2.179810
   363     1   15.258610   13.078810    2.179810
   364     1   15.258610   15.258610    0.000010
   365     1   13.078810   13.078810    4.359610
   366     1   13.078810   15.258610    6.539410
   367     1   15.258610   13.078810    6.539410
   368     1   15.258610   15.258610    4.359610
   369     1   13.078810   13.078810    8.719210
   370     1   13.078810   15.258610   10.899010
   371     1   15.258610   13.078810   10.899010
   372     1   15.258610   15.258610    8.719210
   373     1   13.078810   13.078810   13.078810
   374     1   13.078810   15.258610   15.258610
   375     1   15.258610   13.078810   15.258610
   376     1   15.258610   15.258610   13.078810
   377     1   13.078810   13.078810   17.438410
   378     1   13.078810   15.258610   19.618210
   379     1   15.258610   13.078810   19.618210
   380     1   15.258610   15.258610   17.438410
   381     1   13.078810   17.438410    0.000010
   382     1   13.078810   19.618210    2.179810
   383     1   15.258610   17.438410    2.179810
   384     1   15.258610   19.618210    0.000010
   385     1   13.078810   17.438410    4.359610
   386     1   13.078810   19.618210    6.539410
   387     1   15.258610   17.438410    6.539410
   388     1   15.258610   19.618210    4.359610
   389     1   13.078810   17.438410    8.719210
   390     1   13.078810   19.618210   10.899010
   391     1   15.258610   17.438410   10.899010
   392     1   15.258610   19.618210    8.719210
   393     1   13.078810   17.438410   13.078810
   394     1   13.078810   19.618210   15.258610
   395     1   15.258610   17.438410   15.258610
   396     1   15.258610   19.618210   13.078810
   397     1   13.078810   17.438410   17.438410
   398     1   13.078810   19.618210   19.618210
   399     1   15.258610   17.438410   19.618210
   400     1   15.258610   19.618210   17.438410
   401     1   17.438410    0.000010    0.000010
   402     1   17.438410    2.179810    2.179810
   403     1   19.618210    0.000010    2.179810
   404     1   19.618210    2.179810    0.000010
   405     1   17.438410    0.000010    4.359610
   406     1   17.438410    2.179810    6.539410
   407     1   19.618210    0.000010    6.539410
   408     1   19.618210    2.179810    4.359610
   409     1   17.438410    0.000010    8.719210
   410     1   17.438410    2.179810   10.899010
   411     1   19.618210    0.000010   10.899010
   412     1   19.618210    2.179810    8.719210
   413     1   17.438410    0.000010   13.078810
   414     1   17.438410    2.179810   15.258610
   415     1   19.618210    0.000010   15.258610
   416     1   19.618210    2.179810   13.078810
   417     1   17.438410    0.000010   17.438410
   418     1   17.438410    2.179810   19.618210
   419     1   19.618210    0.000010   19.618210
   420     1   19.618210    2.179810   17.438410
   421     1   17.438410    4.359610    0.000010
   422     1   17.438410    6.539410    2.179810
   423     1   19.618210    4.359610    2.179810
   424     1   19.618210    6.539410    0.000010
   425     1   17.438410    4.359610    4.359610
   426     1   17.438410    6.539410    6.539410
   427     1   19.618210    4.359610    6.539410
   428     1   19.618210    6.539410    4.359610
   429     1   17.438410    4.359610    8.719210
   430     1   17.438410    6.539410   10.899010
   431     1   19.618210    4.359610   10.899010
   432     1   19.618210    6.539410    8.719210
   433     1   17.438410    4.359610   13.078810
   434     1   17.438410    6.539410   15.258610
   435     1   19.618210    4.359610   15.258610
   436     1   19.618210    6.539410   13.078810
   437     1   17.438410    4.359610   17.438410
   438     1   17.438410    6.539410   19.618210
   439     1   19.618210    4.359610   19.618210
   440     1   19.618210    6.539410   17.438410
   441     1   17.438410    8.719210    0.000010
   442     1   17.438410   10.899010    2.179810
   443     1   19.618210    8.719210    2.179810
   444     1   19.618210   10.899010    0.000010
   445     1   17.438410    8.719210    4.359610
   446     1   17.438410   10.899010    6.539410
   447     1   19.618210    8.719210    6.539410
   448     1   19.618210   10.899010    4.359610
   449     1   17.438410    8.719210    8.719210
   450     1   17.438410   10.899010   10.899010
   451     1   19.618210    8.719210   10.899010
   452     1   19.618210   10.899010    8.719210
   453     1   17.438410    8.719210   13.078810
   454     1   17.438410   10.899010   15.258610
   455     1   19.618210    8.719210   15.258610
   456     1   19.618210   10.899010   13.078810
   457     1   17.438410    8.719210   17.438410
   458     1   17.438410   10.899010   19.618210
   459     1   19.618210    8.719210   19.618210
   460     1   19.618210   10.899010   17.438410
   461     1   17.438410   13.078810    0.000010
   462     1   17.438410   15.258610    2.179810
   463     1   19.618210   13.078810    2.179810
   464     1   19.618210   15.258610    0.000010
   465     1   17.438410   13.078810    4.359610
   466     1   17.438410   15.258610    6.539410
   467     1   19.618210   13.078810    6.539410
   468     1   19.618210   15.258610    4.359610
   469     1   17.438410   13.078810    8.719210
   470     1   17.438410   15.258610   10.899010
   471     1   19.618210   13.078810   10.899010
   472     1   19.618210   15.258610    8.719210
   473     1   17.438410   13.078810   13.078810
   474     1   17.438410   15.258610   15.258610
   475     1   19.618210   13.078810   15.258610
   476     1   19.618210   15.258610   13.078810
   477     1   17.438410   13.078810   17.438410
   478     1   17.438410   15.258610   19.618210
   479     1   19.618210   13.078810   19.618210
   480     1   19.618210   15.258610   17.438410
   481     1   17.438410   17.438410    0.000010
   482     1   17.438410   19.618210    2.179810
   483     1   19.618210   17.438410    2.179810
   484     1   19.618210   19.618210    0.000010
   485     1   17.438410   17.438410    4.359610
   486     1   17.438410   19.618210    6.539410
   487     1   19.618210   17.438410    6.539410
   488     1   19.618210   19.618210    4.359610
   489     1   17.438410   17.438410    8.719210
   490     1   17.438410   19.618210   10.899010
   491     1   19.618210   17.438410   10.899010
   492     1   19.618210   19.618210    8.719210
   493     1   17.438410   17.438410   13.078810
   494     1   17.438410   19.618210   15.258610
   495     1   19.618210   17.438410   15.258610
   496     1   19.618210   19.618210   13.078810
   497     1   17.438410   17.438410   17.438410
   498     1   17.438410   19.618210   19.618210
   499     1   19.618210   17.438410   19.618210
   500     1   19.618210   19.618210   17.438410
   501     2    1.089910    1.089910    1.089910
   502     2    1.089910    3.269710    3.269710
   503     2    3.269710    1.089910    3.269710
   504     2    3.269710    3.269710    1.089910
   505     2    1.089910    1.089910    5.449510
   506     2    1.089910    3.269710    7.629310
   507     2    3.269710    1.089910    7.629310
   508     2    3.269710    3.269710    5.449510
   509     2    1.089910    1.089910    9.809110
   510     2    1.089910    3.269710   11.988910
   511     2    3.269710    1.089910   11.988910
   512     2    3.269710    3.269710    9.809110
   513     2    1.089910    1.089910   14.168710
   514     2    1.089910    3.269710   16.348510
   515     2    3.269710    1.089910   16.348510
   516     2    3.269710    3.269710   14.168710
   517     2    1.089910    1.089910   18.528310
   518     2    1.089910    3.269710   20.708110
   519     2    3.269710    1.089910   20.708110
   520     2    3.269710    3.269710   18.528310
   521     2    1.089910    5.449510    1.089910
   522     2    1.089910    7.629310    3.269710
   523     2    3.269710    5.449510    3.269710
   524     2    3.269710    7.629310    1.089910
   525     2    1.089910    5.449510    5.449510
   526     2    1.089910    7.629310    7.629310
   527     2    3.269710    5.449510    7.629310
   528     2    3.269710    7.629310    5.449510
   529     2    1.089910    5.449510    9.809110
   530     2    1.089910    7.629310   11.988910
   531     2    3.269710    5.449510   11.988910
   532     2    3.269710    7.629310    9.809110
   533     2    1.089910    5.449510   14.168710
   534     2    1.089910    7.629310   16.348510
   535     2    3.269710    5.449510   16.348510
   536     2    3.269710    7.629310   14.168710
   537     2    1.089910    5.449510   18.528310
   538     2    1.089910    7.629310   20.708110
   539     2    3.269710    5.449510   20.708110
   540     2    3.269710    7.629310   18.528310
   541     2    1.089910    9.809110    1.089910
   542     2    1.089910   11.988910    3.269710
   543     2    3.269710    9.809110    3.269710
   544     2    3.269710   11.988910    1.089910
   545     2    1.089910    9.809110    5.449510
   546     2    1.089910   11.988910    7.629310
   547     2    3.269710    9.809110    7.629310
   548     2    3.269710   11.988910    5.449510
   549     2    1.089910    9.809110    9.809110
   550     2    1.089910   11.988910   11.988910
   551     2    3.269710    9.809110   11.988910
   552     2    3.269710   11.988910    9.809110
   553     2    1.089910    9.809110   14.168710
   554     2    1.089910   11.988910   16.348510
   555     2    3.269710    9.809110   16.348510
   556     2    3.269710   11.988910   14.168710
   557     2    1.089910    9.809110   18.528310
   558     2    1.089910   11.988910   20.708110
   559     2    3.269710    9.809110   20.708110
   560     2    3.269710   11.988910   18.528310
   561     2    1.089910   14.168710    1.089910
   562     2    1.089910   16.348510    3.269710
   563     2    3.269710   14.168710    3.269710
   564     2    3.269710   16.348510    1.089910
   565     2    1.089910   14.168710    5.449510
   566     2    1.089910   16.348510    7.629310
   567     2    3.269710   14.168710    7.629310
   568     2    3.269710   16.348510    5.449510
   569     2    1.089910   14.168710    9.809110
   570     2    1.089910   16.348510   11.988910
   571     2    3.269710   14.168710   11.988910
   572     2    3.269710   16.348510    9.809110
   573     2    1.089910   14.168710   14.168710
   574     2    1.089910   16.348510   16.348510
   575     2    3.269710   14.168710   16.348510
   576     2    3.269710   16.348510   14.168710
   577     2    1.089910   14.168710   18.528310
   578     2    1.089910   16.348510   20.708110
   579     2    3.269710   14.168710   20.708110
   580     2    3.269710   16.348510   18.528310
   581     2    1.089910   18.528310    1.089910
   582     2    1.089910   20.708110    3.269710
   583     2    3.269710   18.528310    3.269710
   584     2    3.269710   20.708110    1.089910
   585     2    1.089910   18.528310    5.449510
   586     2    1.089910   20.708110    7.629310
   587     2    3.269710   18.528310    7.629310
   588     2    3.269710   20.708110    5.449510
   589     2    1.089910   18.528310    9.809110
   590     2    1.089910   20.708110   11.988910
   591     2    3.269710   18.528310   11.988910
   592     2    3.269710   20.708110    9.809110
   593     2    1.089910   18.528310   14.168710
   594     2    1.089910   20.708110   16.348510
   595     2    3.269710   18.528310   16.348510
   596     2    3.269710   20.708110   14.168710
   597     2    1.089910   18.528310   18.528310
   598     2    1.089910   20.708110   20.708110
   599     2    3.269710   18.528310   20.708110
   600     2    3.269710   20.708110   18.528310
   601     2    5.449510    1.089910    1.089910
   602     2    5.449510    3.269710    3.269710
   603     2    7.629310    1.089910    3.269710
   604     2    7.629310    3.269710    1.089910
   605     2    5.449510    1.089910    5.449510
   606     2    5.449510    3.269710    7.629310