8000
 Atoms. Timestep: 0
1 18.9446 24.2646 225.473
1 17.8537 21.7716 225.522
1 20.2494 22.2405 224.021
1 18.7715 24.4654 222.555
1 21.1168 25.1429 223.999
1 21.3572 25.3492 220.957
1 16.8169 19.0137 225.175
1 10.235 8.20689 3.18916
1 15.9834 16.4332 225.116
1 18.4799 17.074 223.793
1 17.642 21.6878 222.74
1 17.0379 19.0506 222.207
1 19.3988 19.7883 223.803
1 19.2858 19.9025 221.03
1 18.6824 24.8891 219.642
1 10.0018 19.6986 59.3465
1 9.41531 22.1921 58.2984
1 10.2276 8.11983 5.75823
1 9.35462 22.2073 55.5107
1 17.7406 21.8838 219.752
1 10.1306 8.27091 8.89567
1 30.5953 6.1151 113.636
1 31.9757 8.26063 115.003
1 31.9426 8.29854 112.218
1 20.1991 22.6229 221.254
1 20.2937 22.6857 218.618
1 18.692 24.8623 216.907
1 21.2894 25.3003 218.07
1 23.9139 26.0882 216.481
1 7.72096 23.8503 53.94
1 9.75759 24.9221 55.1413
1 10.1241 24.4761 52.0667
1 15.2822 13.5475 225.155
1 14.4097 10.8759 225.276
1 10.1189 8.11167 12.0676
1 16.6812 11.5439 223.765
1 16.2157 16.442 222.36
1 10.3587 7.95979 14.7644
1 15.1834 13.8424 222.423
1 17.5672 14.3299 223.784
1 17.7273 14.4842 220.738
1 16.9234 19.2465 219.503
1 15.9638 16.7327 219.408
1 18.461 17.1674 220.768
1 18.3504 17.2645 217.979
1 17.8462 22.072 217.002
1 16.9212 19.2947 216.569
1 19.3994 19.9261 218.342
1 19.0932 20.22 215.329
1 18.5792 25.0106 214.188
1 17.6842 22.4679 213.992
1 20.244 22.7417 215.861
1 20.4984 22.847 213.269
1 15.032 26.2237 217.376
1 10.1253 8.09297 17.6383
1 17.1077 2.42851 215.478
1 18.8135 24.923 211.466
1 10.1119 8.01798 20.351
1 13.2866 8.23911 225.403
1 6.8436 4.1819 153.834
1 14.6681 6.25238 223.636
1 14.1655 11.2926 222.44
1 13.2937 8.37785 222.654
1 15.7495 8.79672 223.867
1 15.6398 9.15325 220.867
1 7.59947 23.7946 57.0257
1 9.65898 17.0338 59.9748
1 7.69025 14.9451 61.5956
1 6.29527 13.0912 60.1753
1 10.0777 18.8992 61.9463
1 8.29583 12.1778 61.8905
1 34.303 8.19137 61.139
1 34.6713 7.75504 64.5542
1 15.2275 13.7719 219.536
1 10.2542 8.16321 23.0822
1 14.1139 11.15 219.585
1 16.5021 11.7641 220.873
1 10.1877 8.17281 25.9336
1 16.6038 12.0335 218.057
1 15.9851 16.7546 216.518
1 15.0123 14.0239 216.572
1 17.3311 14.6202 217.991
1 17.4953 14.771 215.029
1 16.7524 19.8557 213.694
1 16.015 16.964 213.383
1 18.3364 17.5386 214.906
1 7.77772 15.0942 58.6087
1 18.4007 18.0148 212.021
1 9.41724 12.2689 58.0472
1 8.1895 10.2307 56.7603
1 7.49575 18.7742 55.4457
1 8.65601 13.9454 56.2136
1 9.0501 16.9625 56.7446
1 9.38049 17.1823 53.4451
1 10.246 8.25575 29.0492
1 7.70458 23.8249 51.2546
1 17.4475 22.7639 211.088
1 10.0854 8.24251 31.7209
1 16.6764 20.2374 210.865
1 19.1087 20.6206 212.147
1 20.7724 17.2613 211.11
1 18.7944 24.7102 208.966
1 18.6505 21.5063 208.777
1 20.5595 19.7943 210.064
1 20.4258 20.0655 207.243
1 7.97667 19.0506 52.2145
1 9.00556 21.8084 52.174
1 10.2778 19.8763 50.6254
1 16.1789 20.9053 204.777
1 8.98852 22.1107 49.4461
1 11.3925 22.5906 50.6398
1 11.2108 22.4975 47.8251
1 18.3488 21.8948 206.11
1 18.5632 22.0889 203.285
1 9.93761 8.1538 34.6677
1 13.1692 8.56048 219.686
1 14.3056 6.34439 220.889
1 10.1879 8.28997 37.3054
1 14.4002 6.63187 218.204
1 13.93 11.2599 216.638
1 13.0452 8.65882 216.765
1 15.6428 9.21308 218.091
1 15.7312 9.20495 215.372
1 15.0166 14.5238 213.763
1 14.3037 11.5994 214.007
1 16.6394 12.1573 215.235
1 16.7621 12.4579 212.626
1 16.1727 17.4648 210.709
1 15.1691 14.4801 211.046
1 17.9429 14.9966 212.254
1 17.6139 13.2652 209.901
1 18.137 18.7077 209.102
1 18.3314 16.0329 209.673
1 20.1886 14.4813 210.678
1 10.1145 8.13718 40.289
1 20.1928 14.7968 208.027
1 18.0137 19.087 206.204
1 8.8332 10.1243 44.7114
1 18.1055 16.3947 206.79
1 20.4184 17.4909 208.351
1 30.7139 6.28301 110.702
1 32.9749 5.52825 112.289
1 32.8722 5.43009 109.253
1 20.5013 17.5801 205.55
1 30.711 6.14599 107.735
1 16.3959 21.0748 201.86
1 18.1404 19.3384 203.198
1 20.7031 20.3516 204.512
1 20.5205 20.896 201.747
1 16.2465 21.319 198.989
1 18.5285 22.5738 200.247
1 17.915 22.7527 197.225
1 13.336 8.79766 213.712
1 14.6453 6.71019 215.215
1 8.69249 10.081 47.7359
1 9.81452 25.1115 58.0774
1 31.8788 8.30333 109.174
1 8.93547 9.99018 50.3839
1 31.93 8.27255 106.417
1 15.0679 6.03934 212.034
1 14.9556 11.7969 211.126
1 13.501 8.64678 211.117
1 15.6056 9.43271 212.501
1 16.9681 7.55534 210.811
1 15.3322 12.531 208.501
1 9.63752 21.7931 61.2282
1 8.71144 13.981 53.5144
1 9.78813 24.6366 61.0154
1 11.965 7.04418 54.3926
1 8.94237 14.1155 50.5636
1 7.89013 19.3624 49.1014
1 7.55111 16.3933 49.1059
1 9.60244 17.2394 50.5316
1 9.63649 17.3799 47.6573
1 7.24259 11.9072 54.8393
1 9.06112 22.0801 46.3301
1 15.6554 9.5197 209.33
1 6.67538 12.1491 57.8201
1 17.7215 10.3982 210.916
1 17.1299 7.83976 207.77
1 17.9341 13.4789 206.717
1 15.4109 9.84859 206.707
1 17.8219 10.7528 208.207
1 17.9131 10.9944 205.383
1 18.0342 16.5287 204.031
1 8.12876 19.3509 46.2713
1 10.4382 20.0624 47.7178
1 10.5443 19.986 44.8595
1 18.0749 13.5785 203.986
1 9.11198 21.9405 43.4355
1 11.5131 22.6934 44.9678
1 11.4667 22.7591 41.7877
1 20.1867 14.8446 205.264
1 20.4392 15.1844 202.435
1 33.3061 10.3305 59.1454
1 18.3649 19.6101 200.376
1 18.3404 16.8796 201.356
1 7.74261 23.5384 62.5082
1 20.6726 18.1067 202.823
1 20.732 18.4955 199.896
1 14.1713 24.0817 198.496
1 18.271 19.7966 197.564
1 20.2987 21.4356 198.627
1 15.3461 22.3312 196.644
1 14.3536 24.8902 195.815
1 16.8649 25.364 196.745
1 16.0582 26.3924 194.218
1 14.2977 2.79497 208.657
1 16.1558 3.97592 210.333
1 14.3627 2.47823 211.676
1 15.2156 6.80193 206.252
1 14.7566 3.70183 206.063
1 16.8094 4.94852 207.866
1 17.1309 4.88855 205.009
1 6.65467 21.4333 65.1307
1 15.5892 9.74681 203.757
1 15.6006 6.69738 203.545
1 7.77237 18.5699 68.0429
1 17.5334 8.11288 205.225
1 17.5578 8.23444 202.422
1 18.0772 14.1047 201.136
1 15.8809 9.9932 200.95
1 17.9577 11.2407 202.312
1 17.9828 11.484 199.479
1 18.3259 17.1762 198.415
1 17.7788 14.3049 198.307
1 11.8298 20.5912 63.2752
1 6.30932 12.8155 63.2368
1 33.5082 10.8173 61.6436
1 9.09627 21.4 64.0214
1 7.16724 9.95607 62.9566
1 8.06164 6.85629 66.1896
1 6.87617 4.99858 64.7041
1 33.7253 10.4372 64.6508
1 9.14157 20.6432 69.2737
1 8.80145 3.93027 66.1589
1 20.2205 15.6287 199.606
1 9.20438 20.5031 72.3268
1 20.1979 15.8853 196.877
1 17.5074 20.9253 194.959
1 17.5675 18.0064 195.431
1 20.6291 18.7724 197.04
1 19.7584 19.0994 194.392
1 15.5932 21.4178 190.087
1 30.3224 5.97752 104.979
1 8.98955 3.90621 69.1466
1 7.1431 16.3816 46.2085
1 6.78576 4.78111 67.6915
1 8.72964 14.3365 47.6132
1 8.74468 14.4162 44.9029
1 8.10266 19.102 43.3403
1 7.17132 16.3507 43.3644
1 9.57613 17.2451 44.9504
1 9.47087 17.3129 41.8884
1 9.17026 20.4828 75.3204
1 9.155 22.1074 40.5342
1 32.9935 5.58607 106.52
1 8.9709 20.024 78.0412
1 33.306 5.50087 103.635
1 15.8143 21.7105 192.99
1 30.6835 5.96776 102.219
1 32.076 7.98977 103.436
1 16.7637 23.788 194.519
1 16.8278 18.7626 190.19
1 10.633 22.9134 187.216
1 8.15635 19.2274 40.4176
1 10.5649 20.1453 42.0042
1 10.5892 20.0069 38.8005
1 13.1852 22.2093 188.574
1 8.87743 21.841 37.5459
1 11.657 22.7157 39.1099
1 11.4162 22.5777 36.2387
1 12.1275 24.8332 185.335
1 5.96183 11.6299 149.634
1 8.96494 20.1657 80.6532
1 6.03128 11.7779 152.463
1 14.8642 3.99319 203.235
1 7.49453 18.3068 82.2398
1 33.362 9.78739 151.107
1 16.863 26.5689 204.686
1 16.7489 2.26248 201.815
1 15.6229 7.00758 200.711
1 15.132 4.13868 200.419
1 17.1473 5.18435 202.045
1 32.0387 8.13724 100.547
1 17.4107 5.55094 199.216
1 15.3998 10.4147 198.082
1 15.7265 7.61119 198.171
1 17.9381 8.6116 199.647
1 17.9753 8.71694 196.95
1 17.8299 15.0934 195.669
1 13.582 11.6395 196.317
1 17.5478 11.7629 196.846
1 15.7914 13.8088 194.378
1 7.604 18.2385 84.9712
1 16.8337 19.1042 192.962
1 17.6788 16.419 193.012
1 7.77138 18.4428 87.7033
1 19.8371 16.4709 194.484
1 15.3087 16.7053 191.757
1 12.939 17.486 190.37
1 12.4313 12.6378 188.552
1 13.877 14.8531 190.093
1 15.2266 16.7294 188.782
1 13.271 22.2988 191.629
1 11.5186 15.4158 188.857
1 14.2924 19.4041 188.706
1 12.8545 17.3528 187.433
1 10.5418 18.1568 185.902
1 10.9581 22.6557 184.577
1 11.7698 20.1296 184.32
1 6.98675 9.17446 152.302
1 7.17669 9.18006 155.195
1 14.4686 5.36916 197.333
1 7.50861 18.4921 90.4064
1 34.6147 6.76869 153.954
1 17.103 2.63991 199.199
1 7.71722 18.3463 93.5715
1 16.5288 3.58877 196.555
1 15.6476 9.86236 195.457
1 15.0946 4.73026 194.148
1 15.9934 7.08572 195.472
1 16.3921 6.80375 192.446
1 14.5596 12.1458 192.869
1 15.6194 9.4863 192.678
1 17.4256 11.696 194.151
1 7.10865 16.5175 40.4859
1 17.1106 11.5538 191.479
1 8.63585 14.273 41.9383
1 8.74599 14.522 39.1529
1 8.11827 19.3016 37.5235
1 7.05637 16.6831 37.7077
1 9.53674 17.1663 39.1395
1 9.51242 17.2739 36.1161
1 7.76324 18.5846 96.5533
1 9.15166 21.9957 34.5613
1 12.0724 12.6587 191.48
1 7.6648 18.586 99.3318
1 13.0014 10.1932 191.338
1 16.3607 14.0883 191.801
1 14.6803 12.1306 190.067
1 10.0461 13.3222 187.29
1 10.738 10.633 192.778
1 16.3613 14.0915 188.804
1 14.7038 12.072 187.196
1 8.15423 19.2281 34.5419
1 10.4999 19.9905 36.13
1 10.6644 19.96 33.2665
1 11.4615 15.4057 185.922
1 9.1137 21.8471 31.7534
1 11.5768 22.5583 32.9302
1 11.5327 22.5009 30.2358
1 12.4001 12.6349 185.621
1 13.8285 14.5948 187.356
1 7.50417 18.8392 102.213
1 13.6992 14.7393 184.4
1 10.2465 18.3803 183.056
1 7.57748 18.6224 105.057
1 11.2338 15.6622 182.898
1 12.7457 17.4594 184.348
1 30.6242 6.12903 99.1979
1 33.0516 5.39241 100.956
1 12.7711 17.6815 181.451
1 10.3742 18.2197 179.954
1 11.6075 20.2992 181.3
1 11.823 20.4614 178.478
1 33.5645 9.72804 153.929
1 8.01347 6.14656 155.317
1 8.30666 6.23718 158.187
1 13.8866 7.44644 193.874
1 6.66945 4.31012 156.73
1 17.4107 3.88564 192.621
1 13.6799 2.58717 192.805
1 14.1028 7.41893 191.072
1 7.79479 18.4576 107.901
1 12.2622 24.9014 194.355
1 14.8786 4.78159 191.416
1 7.43635 18.4483 110.874
1 16.6112 6.62804 189.699
1 14.2781 7.21362 188.335
1 15.0849 4.56416 188.459
1 15.6901 9.66193 189.825
1 15.7592 9.43258 186.944
1 13.2063 9.9175 185.76
1 33.1753 5.59476 98.1389
1 14.2826 7.18276 185.65
1 10.6098 23.5686 63.4795
1 7.71252 14.7156 64.6226
1 7.56353 18.8239 64.6761
1 13.2076 9.79953 188.565
1 7.15742 9.8013 66.0509
1 7.09165 9.39183 69.0651
1 34.3523 7.57488 67.345
1 6.36646 12.5137 66.1919
1 7.63616 18.6154 113.72
1 7.98678 6.87103 68.9158
1 15.8403 9.16295 184.267
1 7.62593 18.5785 116.631
1 30.792 6.24334 96.4615
1 32.0976 8.15849 97.8831
1 32.0634 8.30876 94.9847
1 12.5375 12.7449 182.753
1 13.4204 10.0121 182.68
1 14.8818 11.8918 184.31
1 14.8876 12.0121 181.453
1 8.0199 6.64107 71.7641
1 7.18784 16.5515 34.6253
1 6.81894 4.67683 70.4717
1 8.53378 14.487 36.2768
1 8.75263 14.3829 33.2989
1 8.24505 19.4088 31.7199
1 7.43159 16.6593 31.7284
1 9.59432 17.2304 33.1851
1 9.62126 17.1958 30.3697
1 7.80136 18.5425 119.643
1 9.04414 22.1003 28.8093
1 11.5035 15.5265 179.919
1 7.65399 18.3726 122.414
1 12.3465 12.9446 179.91
1 13.8804 14.8392 181.397
1 13.8758 14.8505 178.504
1 10.3566 17.9715 176.853
1 11.4366 15.391 177.078
1 12.7027 17.6459 178.445
1 12.8063 17.6218 175.528
1 8.3464 19.4581 28.859
1 10.7133 19.9629 30.3749
1 10.7278 19.9611 27.5167
1 10.5824 18.1539 174.135
1 9.28359 21.8472 25.9125
1 11.6411 22.564 27.2682
1 11.6129 22.4789 24.5208
1 11.6975 20.3317 175.453
1 11.7182 20.2392 172.755
1 7.75248 18.5064 125.271
1 34.3912 7.02436 156.838
1 9.1409 3.54718 158.379
1 7.57817 18.4962 128.127
1 9.036 3.67411 161.243
1 14.4794 24.2093 187.04
1 6.85408 4.31717 159.809
1 13.3028 2.52301 189.793
1 17.5349 3.90065 187.32
1 15.3264 4.36899 185.66
1 15.9372 26.024 185.746
1 16.5221 6.5197 186.814
1 17.6962 3.78315 184.141
1 14.2692 7.08258 182.86
1 15.2869 4.47167 182.759
1 16.698 6.52097 184.182
1 16.7744 6.44151 181.466
1 13.3714 10.3059 179.99
1 14.4405 7.439 179.78
1 15.8046 9.18811 181.407
1 7.40937 18.4002 130.873
1 15.8291 9.56106 178.453
1 12.5401 12.5439 177.008
1 7.7084 18.2648 133.728
1 13.3757 9.88669 177.066
1 14.9125 12.3624 178.338
1 14.8889 11.9996 175.687
1 11.4025 15.4784 174.104
1 12.4623 12.6971 174.224
1 13.7278 14.7186 175.576
1 13.9441 14.4806 172.613
1 34.3055 7.31323 70.3698
1 8.93757 3.94456 71.8922
1 8.88811 3.8546 74.7929
1 6.58842 4.84793 73.3074
1 10.4788 18.0368 171.002
1 11.5163 15.2688 171.364
1 12.7737 17.6043 172.556
1 12.8314 17.3375 169.713
1 10.461 18.1169 168.269
1 7.52999 18.2867 136.526
1 11.8195 20.3142 169.818
1 11.7882 20.0865 166.89
1 7.45104 18.3451 139.494
1 16.0445 26.1902 182.779
1 18.4221 25.5078 184.244
1 18.4741 25.6217 181.267
1 15.4489 4.55674 179.97
1 16.1051 26.383 179.884
1 17.8087 3.877 181.394
1 17.539 4.05787 178.227
1 14.1968 7.33998 177.097
1 7.32711 16.6292 28.8538
1 15.2327 4.63422 176.952
1 8.64423 14.4616 30.3322
1 8.89975 14.4969 27.4437
1 8.47544 19.2998 26.0392
1 7.27267 16.4841 25.969
1 9.69959 17.1738 27.452
1 9.58689 17.1484 24.5202
1 7.56166 18.3217 142.197
1 9.31468 21.9998 23.1902
1 16.6531 6.87866 178.546
1 7.54176 18.1217 145.171
1 30.7285 6.15184 93.7059
1 33.151 5.87896 95.2129
1 33.1947 5.40574 92.1791
1 16.7393 6.5584 175.687
1 30.8104 6.07688 90.7889
1 31.8785 8.00359 92.1937
1 32.0638 8.02673 89.1847
1 8.22379 19.3548 23.2108
1 10.9485 19.6906 24.593
1 10.7827 20.0573 21.7577
1 13.4234 9.91146 174.2
1 9.2974 21.9522 20.3318
1 11.8434 22.7723 21.6367
1 11.6459 22.7196 18.8773
1 14.1943 7.23296 174.338
1 15.8201 9.32305 175.602
1 7.78267 18.1533 148.093
1 15.6541 9.17208 172.774
1 12.5868 12.4568 171.264
1 7.52158 18.0606 151.107
1 13.3859 9.93114 171.212
1 15.0329 11.9612 172.98
1 14.9868 11.8699 169.715
1 11.2751 15.3799 168.445
1 12.5134 12.498 168.232
1 13.8258 14.6505 169.938
1 13.5858 14.6494 166.897
1 10.3413 18.145 165.294
1 11.3954 15.5551 165.438
1 12.8122 17.4487 166.725
1 12.7081 17.2476 163.826
1 10.3063 18.3066 162.443
1 11.8558 20.0635 164.05
1 11.6034 20.2603 161.281
1 16.0739 26.3192 176.813
1 18.4914 25.6945 178.36
1 7.49288 18.1126 154.073
1 18.7417 25.7069 175.461
1 15.1415 4.62428 174.049
1 7.41537 18.0335 156.848
1 16.0388 26.2925 174.009
1 17.571 3.99181 175.498
1 17.775 3.89662 172.699
1 14.4326 7.15753 171.361
1 15.3054 4.34789 171.321
1 16.7437 6.67267 172.77
1 16.6254 6.47492 169.705
1 13.344 9.79203 168.207
1 14.2702 7.20745 168.382
1 15.7229 9.21264 169.622
1 15.8203 9.15477 166.897
1 12.5538 12.5466 165.287
1 6.21918 12.2539 69.0861
1 6.23786 12.3548 71.9212
1 33.3322 9.95301 70.5669
1 13.3029 9.81466 165.465
1 7.60095 17.982 159.548
1 7.06277 9.29268 71.8441
1 14.6654 11.733 166.764
1 7.49286 17.8843 162.368
1 14.8781 11.7165 163.807
1 11.3121 15.2586 162.321
1 12.4669 12.5281 162.38
1 13.7771 14.5155 163.915
1 13.5967 14.5829 160.973
1 10.3597 18.131 159.497
1 11.1503 15.3006 159.466
1 6.92595 9.45879 74.7309
1 7.39105 16.5034 22.9484
1 34.4318 7.45544 73.18
1 8.76497 14.2623 24.5996
1 8.84406 14.5333 21.7351
1 8.50196 19.3107 20.2618
1 7.40838 16.755 20.273
1 9.74545 17.3797 21.765
1 9.70414 17.2229 18.795
1 7.6696 18.0818 165.625
1 9.18523 22.0074 17.5873
1 12.4605 17.5069 160.998
1 7.48771 18.1663 168.46
1 12.6121 17.2224 158.158
1 10.1828 17.9439 156.65
1 11.7919 19.8745 158.124
1 11.9057 20.0385 155.442
1 16.2327 26.2461 171.207
1 18.7997 25.6889 172.619
1 18.5391 25.4155 169.819
1 8.26159 19.3378 17.1967
1 10.6067 20.1235 18.6404
1 10.7235 20.0956 15.9129
1 15.2487 4.46568 168.379
1 9.27833 22.0929 14.4741
1 11.7408 22.7134 15.9641
1 11.7183 22.5842 12.8264
1 16.2113 26.1004 168.297
1 17.8246 3.74099 170.059
1 8.97099 20.2076 169.554
1 17.8414 3.75533 166.999
1 14.3067 7.0639 165.569
1 7.74822 18.2257 171.047
1 15.3064 4.35211 165.486
1 16.5959 6.43426 166.966
1 16.785 6.41716 164.005
1 13.4055 9.69147 162.451
1 30.7913 5.79288 87.836
1 33.2513 5.34691 89.3517
1 33.0534 5.21762 86.6472
1 14.3093 7.0483 162.691
1 15.9517 9.17428 163.914
1 15.5515 8.96292 161.149
1 12.3071 12.4563 159.617
1 13.4334 9.65979 159.494
1 14.7024 11.7421 160.889
1 14.8076 11.6466 158.284
1 11.353 15.1443 156.485
1 12.3771 12.2698 156.678
1 7.80274 18.1788 173.985
1 13.9289 14.42 158.112
1 13.9244 14.3941 155.313
1 7.61375 18.3916 176.618
1 10.3061 18.1592 153.869
1 11.3675 15.265 153.717
1 12.5992 17.3397 155.296
1 12.5776 17.4334 152.548
1 10.4156 18.3282 150.84
1 12.1419 19.9942 152.327
1 12.0899 20.1341 149.306
1 33.2904 10.2173 73.3351
1 7.82229 6.55462 74.9138
1 7.96303 6.53561 77.7382
1 6.57371 4.71457 76.1872
1 34.4577 7.3768 76.2743
1 8.8088 3.81819 77.6837
1 8.98303 3.86538 80.7696
1 6.73203 4.61389 79.2283
1 6.09719 11.8299 155.458
1 7.78006 18.4397 179.374
1 6.2042 11.978 158.185
1 16.1524 26.1486 165.447
1 7.80909 18.9266 182.245
1 33.5101 9.75884 156.786
1 18.5666 25.3918 166.926
1 30.5165 5.73637 85.047
1 32.0879 7.88121 86.4149
1 31.9743 7.7077 83.486
1 18.6781 25.3441 163.859
1 15.2615 4.21039 162.517
1 16.3394 26.1352 162.523
1 7.3562 16.5241 17.2335
1 17.9135 3.70616 164.059
1 8.57629 14.8528 18.8154
1 8.83257 14.6223 15.8299
1 8.40354 19.3938 14.5409
1 7.4205 16.6294 14.3949
1 9.9302 17.2542 15.829
1 9.75085 17.4318 12.9725
1 7.94172 18.6685 185.008
1 9.30022 21.9234 11.6583
1 17.8125 3.63211 161.055
1 8.09747 18.4338 187.794
1 14.5613 6.98546 159.535
1 15.2016 4.30595 159.691
1 16.7682 6.45476 161.077
1 16.8915 6.0947 158.1
1 13.5892 9.60189 156.688
1 14.327 6.75613 156.668
1 15.8213 8.98169 158.206
1 8.37575 19.4436 11.7024
1 10.7173 20.0819 13.1556
1 10.8055 19.9005 10.3243
1 15.8602 8.95581 155.4
1 9.38459 21.7186 8.87221
1 11.7068 22.6478 10.2085
1 11.5795 22.5421 7.52603
1 12.3829 12.4486 153.867
1 13.2904 9.68636 153.864
1 8.20486 18.812 190.524
1 15.028 11.6701 155.372
1 14.7746 11.8482 152.41
1 6.00077 19.4301 197.923
1 11.3477 15.2627 150.854
1 12.3118 12.5001 151.085
1 13.5273 14.5644 152.341
1 13.8228 14.4936 149.626
1 10.4871 18.3294 147.993
1 11.3405 15.3404 148.007
1 12.8791 17.4111 149.625
1 12.6361 17.4722 146.731
1 10.2835 18.5706 145.229
1 11.9353 20.5406 146.512
1 12.0163 20.4822 143.686
1 7.19326 9.13382 158.099
1 7.27681 9.16767 161.119
1 16.2161 26.0859 159.538
1 34.6399 7.03948 159.56
1 18.6479 25.3988 161.032
1 9.11236 8.89777 198.981
1 18.6912 25.3841 158.181
1 15.1962 4.32606 156.748
1 9.50913 5.64822 201.938
1 16.2091 26.1177 156.76
1 17.887 3.64816 158.327
1 17.6501 3.67753 155.521
1 14.326 6.90953 153.851
1 15.3191 4.18441 153.997
1 16.7631 6.28001 155.436
1 16.8918 6.57366 152.571
1 13.3582 9.6954 150.998
1 14.2916 7.11065 151.016
1 15.5856 9.07612 152.525
1 15.8465 9.03287 149.664
1 12.3781 12.4563 148.004
1 6.17712 12.2312 74.9096
1 6.11257 12.2153 77.8418
1 7.46267 16.4703 11.6112
1 33.475 10.0254 76.3607
1 11.0553 6.87285 206.276
1 8.66757 14.4079 12.931
1 13.3945 9.72882 148.3
1 9.08607 6.15253 204.669
1 14.7802 11.7653 149.477
1 14.9734 11.8888 146.613
1 11.3675 15.4966 145.334
1 12.359 12.6564 145.058
1 13.8008 14.652 146.792
1 13.6645 14.6126 143.778
1 10.4809 18.0602 142.352
1 8.75242 14.3466 10.1823
1 8.26558 19.0962 8.84192
1 7.33277 16.3217 8.77348
1 9.83175 17.2465 10.3476
1 9.89463 16.9851 7.36841
1 9.17723 21.7659 6.22971
1 8.35181 19.1106 6.01776
1 10.7795 19.8425 7.27252
1 10.685 19.7907 4.54672
1 12.1164 6.79354 209.582
1 11.2823 15.3203 142.265
1 12.8585 17.6689 144.008
1 12.39 6.49466 212.517
1 12.5719 17.6781 140.724
1 10.255 18.3116 139.417
1 30.7671 5.99388 81.9181
1 32.8231 5.12026 83.7121
1 33.119 5.3144 80.4556
1 11.7347 20.2466 140.839
1 30.7353 5.94465 79.101
1 9.11991 21.6272 3.31098
1 11.7034 22.6282 4.68522
1 11.5899 22.5836 226.847
1 11.9025 20.2103 138.079
1 33.6513 9.72241 159.647
1 7.04455 9.47479 77.7658
1 7.04073 9.00962 80.6484
1 34.5382 7.22113 79.0461
1 33.5024 9.86017 79.3126
1 11.8569 6.59038 215.438
1 8.06858 6.62566 80.563
1 32.0417 7.89755 80.4528
1 11.6095 6.33719 218.415
1 32.0846 7.77149 77.5497
1 8.25992 6.51518 160.939
1 8.04568 6.55744 163.989
1 16.1004 26.1019 153.927
1 6.75822 4.69303 162.555
1 18.4495 25.3904 155.167
1 8.09745 6.58825 83.4736
1 6.59919 4.76898 82.1798
1 34.243 7.11704 82.2599
1 9.1733 3.92059 83.7601
1 9.12447 3.93844 86.6419
1 7.25526 16.2653 6.02703
1 6.7328 4.79659 85.0659
1 8.87547 14.2953 7.40296
1 8.90063 14.3407 4.61282
1 11.6607 6.28368 221.142
1 8.30701 19.023 3.29585
1 18.6169 25.3184 152.399
1 11.7743 6.37801 223.995
1 15.4196 4.16065 151.053
1 16.2428 26.0028 150.985
1 7.46296 16.1891 3.34259
1 9.92275 16.975 4.42012
1 9.78383 16.8947 226.788
1 10.7589 19.8406 226.892
1 17.7799 3.65699 152.583
1 17.8165 3.70631 149.466
1 14.2996 7.03291 148.211
1 15.1613 4.31102 148.137
1 16.7221 6.37291 149.903
1 11.6425 6.11054 226.779
1 16.6761 6.37925 146.843
1 13.2676 10.0517 145.512
1 14.4316 7.05049 145.368
1 15.7265 9.03186 146.779
1 15.7742 8.97074 143.907
1 12.1833 12.5858 142.131
1 8.91772 14.245 226.994
1 13.3937 9.91736 142.286
1 15.0034 11.9304 143.853
1 6.16563 11.8438 80.7215
1 6.08107 12.0455 83.7637
1 14.8815 11.8876 140.819
1 11.4002 15.646 139.427
1 12.4933 12.6156 139.459
1 13.7327 14.6561 140.93
1 13.5749 14.783 138.023
1 10.192 18.4929 136.675
1 11.2023 15.5688 136.531
1 12.7295 17.6868 137.899
1 12.7307 17.7871 135.12
1 10.3737 18.3076 133.65
1 11.6184 20.3663 135.326
1 11.8067 20.1476 132.276
1 34.5716 7.39998 162.673
1 9.04819 3.70079 164.049
1 8.94368 3.87285 166.98
1 16.2195 26.3324 148.126
1 8.76997 9.94749 227.03
1 8.0392 7.28055 227.015
1 8.0199 7.08361 4.70211
1 34.4549 6.42401 3.1714
1 6.45999 9.10708 3.23542
1 6.6815 4.72006 165.673
1 18.7278 25.3306 149.394
1 18.6387 25.553 146.75
1 34.3929 6.54345 6.19077
1 15.1565 4.2385 145.139
1 16.2921 26.1646 145.35
1 17.5129 3.81876 146.622
1 17.8252 3.83263 143.839
1 14.4178 7.13129 142.401
1 15.3403 4.41347 142.347
1 16.7826 6.4723 143.925
1 16.8067 6.62538 140.865
1 13.4023 9.85401 139.509
1 14.3632 7.26856 139.329
1 30.7799 5.91818 76.0827
1 16.0735 9.19898 140.803
1 15.6814 9.19774 137.858
1 12.2827 12.4875 136.728
1 7.38867 12.0724 3.00813
1 13.4068 10.0181 136.348
1 8.80531 10.1955 4.667
1 8.92357 10.2128 7.37055
1 6.57537 9.42929 5.98926
1 7.55748 12.1533 6.03728
1 7.75855 7.58912 7.54476
1 7.96499 7.5971 10.3616
1 34.3415 6.59371 8.96817
1 6.56749 9.54822 8.70151
1 33.0026 5.16965 77.647
1 33.1557 5.45329 74.7326
1 14.7903 11.8438 138.004
1 34.1736 6.81884 11.9157
1 30.6628 6.11856 73.283
1 31.9896 7.99894 74.8061
1 14.7113 12.1509 135.169
1 11.3645 15.6266 133.732
1 12.2724 12.7129 133.739
1 13.6591 14.8399 135.171
1 13.9007 14.6156 132.031
1 10.2822 18.3557 130.922
1 11.5091 15.6093 130.811
1 12.6977 17.5349 132.308
1 12.7575 17.8213 129.537
1 10.2916 18.4827 127.985
1 14.1123 23.2539 225.665
1 16.2541 23.7276 224.299
1 11.6681 20.4475 129.515
1 11.7924 20.4782 126.614
1 16.2945 26.2034 142.369
1 18.8295 25.5315 143.924
1 18.7805 25.4107 141.048
1 15.2165 4.71548 139.422
1 16.0531 26.3771 139.601
1 17.7466 3.87516 140.74
1 7.58326 12.1584 8.62959
1 17.4971 3.93823 137.961
1 9.02435 10.1375 10.3752
1 8.786 10.1988 13.1963
1 6.50801 9.55804 11.689
1 7.35617 12.2647 11.5264
1 7.79369 7.57696 13.2099
1 7.95899 7.51715 16.139
1 34.2457 6.88335 14.7017
1 6.53133 9.57324 14.6944
1 14.4207 7.31091 136.584
1 31.9608 8.07076 72.001
1 15.1304 4.43312 136.369
1 34.3672 7.02559 17.3565
1 16.7437 6.51875 138.145
1 16.8194 6.54821 135.136
1 13.2203 10.1118 133.6
1 14.1131 7.44334 133.712
1 15.8148 9.40534 135.063
1 15.5079 9.31733 132.126
1 12.3852 12.6298 130.821
1 13.2343 10.0586 130.67
1 14.632 11.9876 132.299
1 14.8054 12.2774 129.292
1 11.2268 15.7245 128.05
1 13.1679 20.4306 225.52
1 12.0293 17.5986 225.347
1 14.3296 18.3808 223.704
1 13.9453 23.256 222.81
1 12.9341 20.7166 222.648
1 15.3568 21.1703 224.083
1 15.4453 21.1977 221.279
1 12.4053 13.0706 127.888
1 13.9472 23.4434 220.111
1 16.1427 23.9566 221.75
1 16.3278 24.2042 218.537
1 13.8222 15.0156 129.457
1 13.6008 15.206 126.638
1 10.5434 18.6014 125.185
1 11.3143 15.8138 125.117
1 7.3463 12.4407 14.5643
1 12.8107 17.8369 126.731
1 8.87817 10.096 15.8446
1 8.91459 10.2278 18.7374
1 6.4649 9.7688 17.2583
1 7.39725 12.4904 17.4706
1 7.76928 7.37981 19.0329
1 7.72881 7.74757 21.8278
1 34.1579 6.93169 20.4112
1 6.53679 9.78751 20.126
1 12.8854 17.7657 123.645
1 10.6562 18.5651 122.211
1 11.9873 20.4421 123.579
1 34.3787 6.76768 23.2988
1 12.0714 20.6387 120.933
1 16.0516 26.3152 136.556
1 18.3976 25.5258 138.154
1 18.58 25.7628 135.141
1 15.0202 4.77649 133.614
1 16.0101 2.22135 133.647
1 17.5851 3.9177 135.156
1 17.6223 3.99208 132.336
1 14.2584 7.28546 130.772
1 15.1493 4.51702 130.826
1 16.5605 6.83371 132.12
1 16.6542 6.55822 129.344
1 13.4705 10.1361 127.882
1 14.1328 7.20698 127.852
1 15.6278 9.46371 129.377
1 11.2446 14.9794 225.241
1 10.0727 12.2152 225.489
1 12.7774 13.0195 223.784
1 11.7426 17.9442 222.533
1 11.2112 15.1322 222.555
1 13.6782 15.773 223.686
1 13.5382 15.93 221.06
1 13.0145 20.689 219.825
1 11.8234 17.9209 219.599
1 14.452 18.5931 221.032
1 14.5535 18.7019 218.176
1 7.47256 12.468 20.3143
1 13.8323 23.4138 217.215
1 8.90195 10.2722 21.5292
1 8.79636 10.2518 24.714
1 6.46844 9.55192 23.3958
1 7.31794 12.2267 23.2255
1 7.96061 7.57154 24.6589
1 7.79546 7.70633 27.6267
1 34.3286 6.95248 26.0851
1 6.4614 9.57569 26.0475
1 15.8147 9.48576 126.514
1 30.6996 5.96734 69.9838
1 33.0267 5.42373 71.8678
1 34.281 7.05319 29.0517
1 12.3208 13.0406 125.138
1 13.5058 10.2037 125.131
1 14.7475 12.3461 126.59
1 14.8358 12.31 123.79
1 11.5372 15.6928 122.316
1 12.2657 12.9756 122.201
1 13.7103 15.0394 123.772
1 13.7708 14.8858 120.85
1 10.5252 18.6293 119.371
1 11.4741 15.7841 119.254
1 33.1062 5.51542 68.6181
1 13.0743 20.8531 216.878
1 15.4216 21.3925 218.351
1 15.2867 21.4734 215.6
1 12.8091 17.6604 120.638
1 13.6745 23.7044 214.29
1 16.1559 24.0824 215.722
1 15.9709 24.6943 212.858
1 12.9011 17.9195 117.859
1 10.6555 18.7346 116.589
1 11.8743 20.576 118.135
1 11.977 20.6885 115.028
1 16.1296 26.3741 130.799
1 18.5397 25.746 132.289
1 18.7916 25.7762 129.415
1 15.2297 4.63493 127.805
1 7.16989 12.3704 25.9874
1 16.2387 26.3756 127.911
1 8.80539 10.1888 27.6103
1 8.77034 10.4896 30.6324
1 6.43013 9.81064 29.1175
1 7.28035 12.383 28.9472
1 7.82278 7.95209 30.4637
1 7.7538 7.65902 33.168
1 34.172 7.02985 31.8309
1 6.09733 9.69602 32.0585
1 17.6534 3.81517 129.569
1 31.9617 8.18063 68.8691
1 33.4278 10.2864 67.6176
1 34.1791 6.67171 34.708
1 32.1024 8.43009 65.9781
1 17.6794 3.9502 126.786
1 14.3142 7.48766 125.154
1 15.1148 4.66019 125.17
1 16.8473 6.87162 126.647
1 16.7354 6.74924 123.638
1 13.507 10.1669 122.15
1 14.2883 7.46361 122.235
1 15.8592 9.39876 123.75
1 15.7368 9.48047 120.829
1 12.3578 13.1065 119.295
1 33.3175 9.85392 82.1317
1 13.3136 10.3189 119.394
1 6.86062 9.3042 83.3412
1 10.2718 12.3008 222.715
1 7.13903 9.37011 86.2045
1 11.781 10.2826 224.101
1 11.8167 10.3911 221.068
1 11.2045 15.1244 219.691
1 10.2345 12.4572 219.946
1 12.5915 13.2734 221.148
1 12.7225 13.3808 218.215
1 12.1074 18.1401 216.747
1 11.0581 15.4831 216.802
1 13.5458 16.0517 218.175
1 13.466 16.2168 215.379
1 7.18418 12.4039 31.9393
1 12.7943 21.0441 214.089
1 8.55607 10.2363 33.2943
1 8.61642 10.3351 35.954
1 6.05646 9.64152 34.6751
1 7.069 12.4561 34.8121
1 7.5179 7.75046 36.1447
1 7.84479 7.62257 39.0622
1 34.1183 6.96311 37.4842
1 6.37334 9.66595 37.557
1 14.8161 12.2066 120.812
1 14.7587 12.345 117.966
1 11.3716 15.8715 116.548
1 34.1884 6.99236 40.3644
1 12.4136 13.1762 116.36
1 13.7104 15.1118 117.93
1 13.8666 15.2437 114.949
1 10.5892 18.5024 113.571
1 11.4 15.8565 113.722
1 12.9218 17.9167 114.952
1 12.8222 17.7021 112.128
1 10.326 18.5114 110.748
1 11.8987 20.4883 112.103
1 11.9463 20.5904 109.138
1 6.00816 12.0893 161.041
1 11.98 18.2947 213.816
1 14.4379 18.9529 215.426
1 14.4691 19.1233 212.469
1 13.6631 24.424 211.384
1 12.952 21.5655 211.455
1 15.2954 22.0038 212.654
1 15.184 22.3908 209.847
1 7.74091 13.9639 165.366
1 13.7915 24.3591 208.519
1 16.0565 25.7321 210.196
1 16.6181 23.6962 207.684
1 16.2035 26.3978 124.972
1 6.19111 12.0227 163.88
1 18.7364 25.8821 126.48
1 18.9833 25.9171 123.589
1 7.34722 12.2801 37.6842
1 15.3469 4.7494 122.322
1 8.74078 10.221 38.9654
1 8.7816 10.204 41.8261
1 6.49794 9.58767 40.4326
1 7.25886 12.3889 40.5046
1 7.51914 7.46729 41.7576
1 6.23617 9.24741 46.3322
1 34.0882 7.04018 43.3908
1 6.45139 9.55849 43.6268
1 16.2134 26.4498 122.156
1 17.6688 4.07022 123.749
1 17.6326 3.97446 120.841
1 32.7319 8.86473 47.814
1 14.3485 7.49338 119.357
1 15.1053 4.72329 119.25
1 16.7452 6.76734 120.854
1 16.7364 6.91899 117.9
1 13.3534 10.3321 116.523
1 14.3891 7.36207 116.495
1 15.6539 9.56849 118.053
1 15.5989 9.55647 115.125
1 12.3839 13.132 113.485
1 13.3026 10.2503 113.585
1 30.6358 6.32656 67.2209
1 14.917 12.4764 115.099
1 14.8302 12.2569 112.35
1 11.2008 15.7724 110.731
1 12.3426 13.0427 110.728
1 34.332 7.20591 85.0314
1 33.341 9.81597 84.7367
1 8.00443 6.69134 86.7165
1 7.94899 6.92349 89.6143
1 6.72331 4.69777 88.0108
1 34.3962 7.4005 88.0078
1 9.07542 4.35236 89.4817
1 10.498 12.5451 216.73
1 9.1385 4.34578 92.4439
1 11.617 10.4608 218.286
1 11.8177 10.6431 215.23
1 7.36013 12.1761 43.4107
1 11.0833 15.5102 213.692
1 7.35496 12.0692 46.1187
1 7.32559 12.0035 48.8959
1 33.7746 11.4388 47.6315
1 34.6382 14.1517 47.5122
1 6.27596 9.40376 49.1814
1 6.41318 9.20031 51.7832
1 32.8775 8.63288 50.5261
1 33.9583 11.5454 50.4417
1 33.327 5.73516 65.845
1 33.5391 5.99655 62.9813
1 13.8585 15.0595 112.245
1 32.9831 8.53181 53.4603
1 30.8869 6.35198 64.4119
1 32.3716 8.33515 62.9842
1 9.16227 16.6817 63.3444
1 13.7426 15.0983 109.29
1 10.3276 18.7345 107.943
1 11.249 15.8674 107.878
1 12.7053 17.7069 109.346
1 12.702 17.9902 106.463
1 10.3861 18.8571 104.912
1 11.7853 20.7698 106.555
1 11.9417 20.7089 103.485
1 10.322 12.5662 213.573
1 12.6471 13.38 215.201
1 12.8676 13.4738 212.458
1 12.1269 18.4631 210.894
1 11.549 15.6343 210.756
1 13.6152 16.5253 212.186
1 13.6794 16.746 209.369
1 12.9804 21.68 208.44
1 12.1585 18.6851 207.898
1 14.3299 19.588 209.514
1 15.9774 17.9025 207.77
1 14.3377 22.6579 206.275
1 14.092 19.825 206.248
1 16.1803 20.5835 207.744
1 15.9962 18.2101 204.849
1 6.12616 14.1281 50.4732
1 7.34978 9.39974 163.961
1 7.37352 11.9135 51.9202
1 34.6011 13.9628 56.0175
1 33.8149 11.0884 53.2469
1 34.5038 18.1576 53.3176
1 6.62303 9.0573 54.5358
1 6.27062 8.48446 58.0505
1 33.3698 7.84743 56.042
1 34.0546 10.4257 56.1323
1 7.09241 9.24298 166.741
1 16.198 26.5311 119.373