8000
 Atoms. Timestep: 150000
1 17.4418 25.2583 228.809
1 16.4163 22.7728 228.803
1 18.8972 23.1911 227.332
1 17.5178 25.2746 225.751
1 19.7087 25.9217 227.184
1 19.7532 25.69 224.38
1 15.5646 19.8676 229.002
1 8.98228 9.14188 232.021
1 14.3792 17.2442 228.922
1 16.7902 17.7664 227.331
1 16.4042 22.6488 225.808
1 15.2623 19.8265 226.014
1 17.7062 20.5438 227.51
1 17.7601 20.3917 224.599
1 17.3226 24.8526 222.941
1 15.5868 15.376 63.62
1 18.0296 14.7955 62.2794
1 8.71886 8.94036 235.055
1 8.82715 20.7783 43.1528
1 16.542 22.2374 222.997
1 8.69764 9.34229 -4.27864
1 32.2506 5.23033 117.391
1 33.3517 7.56479 118.795
1 33.4571 7.27256 116.016
1 18.9009 22.8693 224.557
1 18.8524 23.1824 221.42
1 17.2832 25.0972 220.107
1 19.8266 25.7775 221.718
1 22.0939 26.2532 220.353
1 21.346 13.5967 55.2477
1 10.2558 19.099 44.1982
1 32.5268 23.9278 38.9423
1 13.6302 14.457 228.829
1 12.5015 11.83 228.871
1 8.73328 9.22939 -1.35442
1 14.9286 12.4264 227.613
1 14.3981 17.1757 225.942
1 8.85761 9.68896 1.5747
1 13.4446 14.2834 226.023
1 15.8851 15.1706 227.607
1 15.9157 15.0298 224.732
1 15.567 19.7302 223.22
1 14.484 16.972 222.981
1 16.8131 17.7042 224.434
1 16.923 17.4625 221.69
1 16.3349 22.2873 220.175
1 15.48 19.5908 220.264
1 17.7431 20.194 221.589
1 17.8993 20.2253 218.94
1 17.2413 24.986 217.168
1 16.3945 22.2883 217.042
1 18.7921 23.0317 218.698
1 18.7154 22.9751 215.717
1 13.4314 26.4163 219.947
1 8.95419 9.626 4.61828
1 15.8252 2.63653 218.777
1 17.4671 24.9195 214.177
1 8.54233 9.50043 7.3928
1 11.6003 9.01821 228.926
1 6.40522 4.07978 157.341
1 12.909 6.59579 227.456
1 12.5094 11.5866 225.918
1 11.5347 8.75084 226.308
1 13.9257 9.70535 227.38
1 13.7561 9.35224 224.674
1 12.6599 9.8887 63.8673
1 13.145 14.5304 62.7879
1 11.6311 13.8289 66.3545
1 9.11386 13.8042 64.7352
1 17.143 17.3031 65.0321
1 12.8473 11.2768 66.158
1 8.42011 9.04959 66.2341
1 9.67396 7.07507 68.4983
1 13.6698 14.2871 223.034
1 8.74961 9.41942 10.1212
1 12.5042 11.6147 223.138
1 14.9304 12.2184 224.674
1 8.57258 9.57074 12.8916
1 15.0017 12.0565 221.813
1 14.5475 16.9406 220.255
1 13.5752 14.1288 220.277
1 16.1652 14.8788 221.746
1 16.073 14.8964 219.064
1 15.6008 19.4384 217.423
1 14.4407 16.8585 217.505
1 17.1144 17.4647 218.873
1 11.8252 12.6172 64.0406
1 17.0189 17.4939 215.977
1 14.1026 11.7258 62.3667
1 23.4794 13.7862 48.6268
1 6.43523 20.2602 41.8334
1 7.07898 15.8518 43.1347
1 13.1615 14.9918 44.3284
1 7.84247 18.4443 40.2635
1 8.64403 9.51821 15.8602
1 33.9514 22.222 40.3382
1 16.4722 22.3319 213.95
1 8.70916 9.54841 18.7753
1 15.3839 19.8376 214.736
1 17.9208 20.2372 215.941
1 18.586 15.4645 214.65
1 16.2133 22.0866 211.178
1 18.1021 20.1046 213.23
1 19.6063 18.1011 214.544
1 19.4012 18.0277 211.63
1 6.3701 20.3994 38.8301
1 7.5369 22.9144 38.6379
1 8.92232 21.0726 37.3398
1 13.4471 19.4953 207.499
1 7.67851 23.213 35.837
1 9.94529 23.9519 37.2746
1 9.88101 24.075 34.3633
1 15.7435 19.6456 209.03
1 15.7856 19.9469 206.204
1 8.81588 9.57471 21.6825
1 11.5388 8.77059 223.28
1 12.8138 6.49978 224.625
1 8.38616 9.63886 24.488
1 13.0122 6.76259 221.928
1 12.605 11.4803 220.316
1 11.6053 8.56216 220.376
1 14.0075 9.42228 221.605
1 14.1393 9.40565 218.874
1 13.6664 14.0338 217.588
1 12.62 11.3652 217.542
1 15.1169 12.0698 218.807
1 15.1052 12.1589 216.228
1 14.5699 16.9042 214.535
1 13.5908 14.0174 214.627
1 16.2077 14.9233 216.053
1 15.1532 11.9211 213.487
1 17.0037 17.5927 213.117
1 15.91 14.7857 213.308
1 17.5881 12.8066 214.744
1 8.64755 9.78326 27.4114
1 17.3241 12.7183 211.81
1 16.6645 17.4667 210.14
1 7.07821 11.4787 31.5188
1 15.7902 14.7979 210.458
1 18.3419 15.2841 211.918
1 32.3864 5.01673 114.401
1 5.93735 4.61576 116.122
1 6.02899 4.50161 112.982
1 19.3481 18.1087 208.84
1 32.5191 5.08642 111.612
1 13.2517 20.2489 204.628
1 16.7115 17.5001 207.027
1 18.0442 20.285 207.636
1 18.5471 19.3996 205.112
1 13.0591 20.8537 201.962
1 15.954 20.3133 203.567
1 14.8279 23.0271 200.775
1 11.7235 8.47382 217.553
1 13.0266 6.51573 218.99
1 7.14761 11.7129 34.3901
1 23.8296 15.8355 51.6431
1 33.6847 7.164 113.076
1 7.1604 11.712 37.4267
1 33.9011 7.04117 110.209
1 12.7893 6.47098 216.114
1 12.5886 11.3285 214.671
1 11.5455 8.41879 214.541
1 13.9825 9.2686 216.074
1 15.2739 6.97079 214.684
1 12.7018 11.2478 211.771
1 18.8379 19.4922 63.596
1 6.93869 15.5028 40.2148
1 16.2896 24.8544 69.1973
1 16.1863 11.3819 44.4324
1 7.03476 15.6881 37.2262
1 6.56418 20.5013 35.794
1 34.4438 17.6716 35.664
1 7.80668 18.3194 37.3158
1 8.04646 18.4306 34.4766
1 5.64861 13.7 41.6359
1 7.83826 23.3364 32.8569
1 14.2023 9.12324 213.262
1 29.3278 16.7754 46.1216
1 16.474 10.0741 214.641
1 15.5193 7.21826 211.895
1 15.0331 11.8946 210.558
1 14.0788 9.14551 210.35
1 16.6294 9.80501 211.77
1 16.415 9.98475 208.857
1 15.7761 15.1157 207.854
1 6.78538 20.7038 32.9325
1 9.00743 21.2589 34.463
1 9.0237 21.2143 31.4031
1 17.6105 13.0016 209.184
1 7.65487 23.2949 30.156
1 10.1838 24.0056 31.2413
1 9.9816 23.8247 28.4861
1 18.3035 15.5623 208.7
1 17.8755 14.0107 206.482
1 24.1912 16.4034 48.7248
1 14.2432 17.5202 205.631
1 15.4284 15.174 205.124
1 17.5685 22.4635 66.5053
1 19.0771 16.5977 205.462
1 16.6613 17.483 204.2
1 10.8228 21.6371 200.532
1 14.3767 18.1728 202.663
1 18.3486 19.4976 202.266
1 13.4843 20.8728 199.166
1 10.0666 24.2937 197.985
1 12.4932 23.5456 199.289
1 14.0732 25.8388 198.1
1 12.9515 26.1828 211.523
1 14.2766 4.18743 214.501
1 12.9553 26.2627 214.288
1 13.2627 6.58882 210.262
1 12.1803 4.04166 209.715
1 14.3622 4.47821 211.523
1 13.9924 5.48709 207.818
1 7.9099 17.1921 67.1108
1 13.1711 8.19544 207.602
1 11.9608 5.91027 205.854
1 10.6208 20.9518 76.2309
1 15.7338 7.34476 209.043
1 15.7225 7.42727 206.463
1 16.1955 12.2319 205.108
1 13.5307 8.17945 204.925
1 14.6957 10.174 206.371
1 15.9975 7.4958 203.665
1 15.4566 15.5028 202.4
1 16.462 12.5552 202.208
1 18.3525 19.3981 66.5011
1 10.1928 11.7728 67.533
1 10.3576 10.5549 65.177
1 10.3476 16.4798 66.3131
1 11.1504 9.11301 67.1403
1 11.8937 6.51351 70.2695
1 10.5637 4.6659 68.9786
1 8.57701 9.48194 68.7933
1 12.976 20.6064 74.7859
1 12.7474 3.80368 70.7685
1 17.8685 14.5798 203.654
1 10.4659 21.0036 78.8346
1 17.9933 14.9306 200.983
1 16.0176 20.4683 197.984
1 14.6188 18.3901 199.3
1 16.7667 17.7296 200.946
1 18.5739 19.7466 196.758
1 13.9562 20.8579 193.581
1 32.5606 5.06828 108.81
1 12.6214 3.80518 73.3137
1 34.5064 17.7695 32.9744
1 10.1738 4.51778 71.6632
1 7.18353 15.4505 34.6601
1 7.28405 15.5515 31.7404
1 6.57388 20.4306 30.1307
1 34.6645 17.7833 30.1569
1 8.133 18.4566 31.4688
1 8.13535 18.4001 28.7437
1 12.6196 20.3686 80.4832
1 7.60995 23.3338 27.2193
1 6.42019 4.5937 110.116
1 12.6964 20.439 83.2652
1 6.19245 4.48426 107.113
1 13.5402 20.9804 196.588
1 32.729 4.98297 105.921
1 33.9694 7.10531 107.358
1 12.7785 23.5556 196.656
1 14.8076 18.1612 193.701
1 9.25406 22.0746 190.68
1 6.68147 20.7231 27.2184
1 8.94275 21.2269 28.6752
1 8.98692 21.4056 25.6942
1 11.7161 21.3259 192.188
1 7.68373 23.3158 24.3318
1 10.0603 23.926 25.6307
1 10.1734 23.9064 22.8715
1 10.8461 24.1331 188.972
1 34.8573 11.5825 153.362
1 12.3492 20.3173 86.0559
1 34.5698 11.6023 156.092
1 12.8276 3.26496 206.601
1 10.7701 18.6236 87.6389
1 33.2992 9.59669 154.562
1 12.9806 25.847 208.967
1 15.4365 2.78523 205.014
1 12.1057 6.18335 203.182
1 12.9826 3.44297 203.609
1 14.6678 5.25585 205.075
1 34.3892 7.16414 104.422
1 15.395 2.89474 202.255
1 13.7033 8.48758 202.129
1 12.1791 6.42891 200.501
1 14.638 5.46043 202.187
1 15.9561 7.82592 200.912
1 15.7961 15.4816 199.385
1 12.7829 11.5102 199.264
1 15.1476 10.6341 200.734
1 14.3533 13.3197 197.853
1 10.7864 18.3032 90.5396
1 14.6053 18.3152 196.682
1 15.8597 15.5271 196.561
1 10.7678 18.2562 93.3008
1 17.0548 17.7346 198.042
1 13.2614 16.2789 195
1 10.9856 16.967 193.303
1 10.4059 11.8276 192.068
1 11.8935 14.0683 193.28
1 13.5318 16.0477 192.214
1 11.3976 21.5821 194.967
1 9.55231 14.7542 191.779
1 12.4111 18.7688 191.869
1 11.2715 16.6535 190.357
1 8.73496 17.42 189.061
1 9.41015 22.2142 187.798
1 10.2126 19.5555 187.801
1 6.82696 8.86282 156.206
1 6.82744 8.93762 158.9
1 12.8336 3.79676 200.869
1 10.5959 18.151 96.2148
1 34.0508 6.84536 157.306
1 13.6341 25.5896 200.941
1 10.2744 18.157 99.0766
1 15.5452 3.40769 199.479
1 13.7894 8.75841 199.25
1 13.2767 3.90336 198.102
1 12.3424 6.6504 197.729
1 14.7588 5.94537 196.541
1 12.7481 11.5661 196.358
1 13.753 8.79468 196.449
1 15.3203 10.7983 197.819
1 34.5817 17.7299 27.2467
1 15.2184 10.9663 195.019
1 7.13283 15.7101 28.8891
1 7.00577 15.723 25.839
1 6.71434 20.6953 24.1889
1 34.4113 17.9408 24.3735
1 7.89488 18.4952 25.727
1 8.11334 18.5597 22.7277
1 10.3451 18.3759 101.849
1 7.85401 23.3752 21.5285
1 10.448 12.1336 194.934
1 9.95552 18.2715 104.641
1 11.377 9.31481 194.861
1 14.2583 13.4883 195.069
1 12.7757 11.4006 193.526
1 8.15379 12.7724 190.423
1 8.96653 9.96307 196.084
1 14.391 13.3194 192.412
1 13.1968 11.3792 190.635
1 6.78678 20.7404 21.436
1 9.2597 21.2768 22.8315
1 9.06631 21.3674 19.8464
1 9.79506 14.6153 189.047
1 7.83586 23.3301 18.5473
1 10.0134 23.9462 20.0204
1 10.0237 23.9848 17.3061
1 10.7813 11.9424 189.148
1 12.1915 13.9444 190.508
1 9.82428 18.22 107.489
1 12.3764 14.1099 187.827
1 8.76703 17.4236 186.234
1 9.61363 18.2578 110.594
1 9.78169 14.7316 186.247
1 11.2424 16.8477 187.64
1 32.77 5.253 103.211
1 6.47897 4.65299 104.485
1 11.2481 16.5949 184.817
1 9.0691 17.6218 183.261
1 10.2589 19.5953 184.788
1 10.3812 19.5635 181.959
1 33.0769 9.56781 157.296
1 7.82413 6.18195 158.833
1 7.55041 6.18624 161.844
1 10.7664 4.50085 199.15
1 6.3835 4.26569 160.341
1 15.7617 3.29379 196.441
1 11.7948 26.2737 196.462
1 12.4061 6.66909 194.996
1 9.44453 18.1945 113.384
1 8.26666 24.988 195.993
1 13.2358 3.81796 195.075
1 9.50325 18.3509 116.159
1 14.8673 5.97765 193.639
1 12.6752 6.76956 192.063
1 13.3968 3.77355 192.133
1 13.8742 8.77413 193.561
1 14.0482 8.65807 190.653
1 11.6411 9.2616 189.053
1 6.5914 4.60673 101.693
1 12.7409 6.38794 189.289
1 14.7202 22.7165 73.5309
1 11.3996 14.0752 69.1073
1 14.342 17.8253 69.1793
1 11.6332 9.23195 191.883
1 10.9571 9.19168 70.3191
1 10.7687 8.92924 73.1435
1 9.35522 7.08572 71.5497
1 9.82868 11.8486 70.4236
1 9.28878 18.3951 118.996
1 11.7838 6.41022 73.1737
1 14.3883 8.63717 187.773
1 9.1702 18.5278 121.893
1 32.9238 5.20417 100.334
1 34.175 7.33566 101.593
1 34.3643 7.16489 98.8024
1 10.794 12.0079 186.28
1 11.7616 9.2584 186.142
1 13.1786 11.3951 187.812
1 13.3782 11.3461 184.935
1 11.5453 6.28926 76.0354
1 34.4968 18.055 21.4865
1 10.2255 4.4346 74.6093
1 7.08627 16.0145 23.0941
1 7.25251 15.8168 20.1562
1 6.64191 20.5442 18.6024
1 34.4613 17.8591 18.7219
1 8.06929 18.4488 19.9958
1 8.2161 18.5171 17.1311
1 9.06821 18.5248 124.679
1 7.67662 23.4471 15.6323
1 9.86696 14.7392 183.306
1 9.07236 18.3995 127.532
1 10.914 12.0295 183.45
1 12.4163 13.921 184.961
1 12.5043 14.0974 182.019
1 8.95406 17.5807 180.547
1 10.0912 14.8718 180.563
1 11.5825 16.8785 181.951
1 11.4574 17.0674 179.116
1 6.78831 20.5797 15.7757
1 9.0783 21.4207 17.0205
1 9.12638 21.3055 14.0607
1 9.19317 17.5843 177.627
1 7.80637 23.303 12.6254
1 10.0207 23.8664 14.2367
1 10.0344 24.152 11.2271
1 10.3746 19.7159 179.134
1 10.7786 19.5337 176.22
1 8.62781 18.4461 130.556
1 34.0191 6.92661 160.054
1 8.65369 3.32456 161.717
1 8.52651 18.4113 133.33
1 8.36219 3.44173 164.47
1 13.2304 23.5945 190.805
1 6.16521 3.99199 163.038
1 12.0059 26.0907 193.436
1 16.0153 3.03723 191.02
1 13.6569 3.68985 189.292
1 14.7416 25.4967 189.189
1 15.0356 5.85567 190.772
1 16.2089 3.19705 187.878
1 12.7439 6.67013 186.291
1 13.8499 3.80348 186.299
1 15.0979 5.86757 187.823
1 15.3396 5.94163 185.017
1 11.9763 9.34158 183.317
1 12.9294 6.61868 183.552
1 14.2558 8.64119 184.993
1 8.38137 18.6421 136.152
1 14.4023 8.85905 181.977
1 11.112 12.1505 180.651
1 8.36581 18.5893 139.216
1 12.1852 9.21866 180.495
1 13.4609 11.4237 182.111
1 13.7377 11.4394 179.145
1 10.1663 14.9545 177.824
1 11.251 12.0544 177.799
1 12.5503 14.2067 179.266
1 12.6137 14.1787 176.402
1 9.18949 6.87311 74.3763
1 12.7356 3.71019 76.2563
1 12.3433 3.58593 78.9869
1 10.0929 4.20549 77.357
1 9.24642 17.6352 174.656
1 10.3054 14.8728 174.742
1 11.555 16.804 176.326
1 11.8384 17.1732 173.39
1 9.30581 17.6577 171.798
1 8.43406 18.2095 142.019
1 10.6881 19.7679 173.433
1 10.7892 19.7583 170.563
1 8.3059 18.2876 144.764
1 14.7589 25.5709 186.357
1 17.1867 25.0753 187.859
1 17.2521 25.1482 184.93
1 14.0432 3.91942 183.527
1 14.9464 25.5541 183.51
1 16.4074 3.40875 184.991
1 16.5069 3.26245 182.175
1 13.0479 6.55943 180.549
1 34.5992 17.7775 15.6567
1 14.1651 3.95952 180.684
1 7.23988 15.7664 17.1911
1 7.19885 15.7546 14.2679
1 6.81486 20.6139 12.6362
1 34.8472 17.8738 12.7704
1 8.29396 18.588 14.1059
1 8.16928 18.4784 11.2315
1 7.84087 18.5416 147.404
1 7.78703 23.5219 9.78503
1 15.5628 6.00205 182.203
1 7.71797 18.3352 150.228
1 33.1257 5.22033 97.4144
1 6.71758 4.44768 98.9509
1 6.75224 4.71977 96.0334
1 15.7298 6.14249 179.327
1 33.0854 5.29658 94.47
1 34.5767 7.28955 95.8234
1 34.8464 7.27286 92.9565
1 6.75821 20.7567 9.96044
1 9.22957 21.2771 11.0313
1 9.15362 21.3358 8.36467
1 12.3492 9.43959 177.714
1 7.81288 23.423 6.89397
1 10.0533 23.9451 8.30376
1 10.2022 24.0314 5.37825
1 13.2727 6.70028 177.722
1 14.7635 8.63435 179.31
1 7.63092 18.4843 153.16
1 14.8863 8.75021 176.497
1 11.3884 12.19 174.785
1 7.49694 18.461 155.795
1 12.4442 9.48017 174.982
1 13.8285 11.6482 176.339
1 13.9459 11.6886 173.571
1 10.4867 15.0563 171.916
1 11.5774 12.4617 171.947
1 12.8676 14.5789 173.697
1 12.9495 14.3157 170.786
1 9.51869 17.7446 169.077
1 10.7659 15.0938 169.137
1 11.9707 17.1426 170.601
1 12.056 17.0282 167.673
1 9.63775 18.1246 166.341
1 11.1159 19.9688 167.766
1 11.2908 20.0202 164.968
1 14.9746 25.6324 180.715
1 17.4701 24.984 182.177
1 7.50896 18.5603 158.93
1 17.4675 25.2629 179.494
1 14.1553 4.07497 177.858
1 7.25392 18.4639 161.786
1 15.0695 25.7511 177.952
1 16.6386 3.35453 179.371
1 16.8492 3.52084 176.641
1 13.1957 6.71789 174.912
1 14.3585 4.13244 175.221
1 15.812 6.11046 176.621
1 15.8357 6.2099 173.758
1 12.484 9.53885 172.013
1 13.3918 6.80958 172.066
1 14.7923 8.94844 173.499
1 14.9734 8.86109 170.766
1 11.7573 12.3844 169.034
1 9.69864 11.689 73.2696
1 9.43937 11.7416 76.0674
1 8.20798 9.65044 74.445
1 12.7687 9.72434 169.259
1 7.34324 18.4126 164.77
1 10.5953 8.90753 76.0604
1 14.1884 11.6214 170.678
1 6.91995 18.1337 167.627
1 14.441 11.7184 167.882
1 10.7286 15.0733 166.295
1 11.755 12.3053 166.325
1 13.1413 14.6394 167.852
1 13.1366 14.4681 164.994
1 9.66316 18.1112 163.291
1 10.8479 15.241 163.426
1 10.4221 8.84266 78.8132
1 34.6917 18.0421 9.78333
1 8.97574 6.74731 77.3099
1 7.28681 15.8211 11.2914
1 7.4036 15.8654 8.37738
1 6.69195 20.8099 7.1147
1 34.7284 17.8234 6.91161
1 8.30998 18.683 8.42053
1 8.17401 18.6369 5.60654
1 6.8933 18.3755 170.43
1 7.76432 23.3525 3.95701
1 12.1499 17.2704 164.947
1 6.89471 18.1666 173.319
1 12.1539 17.2566 162.008
1 9.73561 18.1977 160.486
1 11.2912 20.0733 162.159
1 11.4894 19.8682 159.373
1 15.3091 25.7774 175.257
1 17.7524 25.3057 176.679
1 17.8074 25.311 173.883
1 6.77756 20.6575 4.07748
1 9.15153 21.3131 5.64705
1 9.27811 21.2999 2.65501
1 14.3385 3.95001 172.361
1 7.8443 23.0493 1.19633
1 10.3658 23.9427 2.34111
1 10.2179 23.8251 -0.462072
1 15.3661 25.8197 172.386
1 16.7797 3.42042 173.764
1 8.29526 20.2599 174.848
1 16.7307 3.39618 170.886
1 13.7031 6.82079 169.076
1 6.90244 18.2521 176.183
1 14.5711 4.06074 169.227
1 15.7585 5.99205 170.917
1 16.085 6.18649 168.053
1 12.7042 9.49992 166.3
1 33.2838 5.27446 91.649
1 7.04565 4.65293 93.1097
1 7.20676 4.7516 90.433
1 13.7475 6.90251 166.363
1 15.1135 8.75958 167.763
1 15.4026 9.02298 164.87
1 11.8675 12.1279 163.493
1 13.1088 9.55926 163.531
1 14.3065 11.6764 165.12
1 14.4498 11.7024 162.336
1 11.0609 15.177 160.518
1 12.0346 12.4682 160.627
1 6.58769 18.1018 179.152
1 13.2001 14.4518 162.231
1 13.5259 14.5045 159.266
1 6.41888 17.9672 181.884
1 10.056 18.148 157.714
1 10.9819 15.1463 157.807
1 12.3347 17.1851 159.275
1 12.4005 17.3881 156.378
1 10.1785 18.1588 154.859
1 11.6746 20.3184 156.415
1 11.7284 20.2162 153.621
1 8.11826 9.30856 77.3033
1 11.4288 6.13463 78.8693
1 11.3975 6.1868 81.8267
1 9.95479 4.23125 80.3215
1 8.94035 6.71003 80.2451
1 12.2224 3.57966 81.8251
1 12.333 3.32512 84.7914
1 9.98403 4.12135 83.2503
1 34.2769 11.6516 158.824
1 6.60397 18.2293 184.795
1 34.3667 11.6422 161.722
1 15.5151 25.93 169.399
1 6.48187 18.1919 187.602
1 32.8644 9.57996 160.149
1 17.9643 25.3235 171.023
1 33.7648 5.05145 88.679
1 6.14413 7.48462 90.1479
1 6.13795 7.41507 87.2573
1 18.1201 25.2865 168.093
1 14.7242 4.33737 166.567
1 15.5998 25.8277 166.687
1 34.5695 17.7701 4.24209
1 17.043 3.50855 168.126
1 7.33406 15.7313 5.53662
1 7.41208 15.5333 2.57667
1 6.71816 20.4564 1.3821
1 34.6759 17.68 1.49739
1 8.3199 18.3412 2.84305
1 8.07018 18.3374 -0.00876627
1 6.14176 18.0615 190.295
1 7.9759 23.1133 -1.78839
1 17.176 3.58962 165.218
1 6.09151 18.0325 193.206
1 13.9981 6.97194 163.486
1 14.8537 4.18387 163.565
1 16.3938 6.21281 164.957
1 16.424 6.20456 162.25
1 12.8045 9.72836 160.618
1 13.93 6.77984 160.674
1 15.5205 8.90158 162.068
1 6.84844 20.3874 -1.69675
1 9.11518 20.9803 -0.23213
1 9.11866 20.8681 -3.1222
1 15.4905 8.96389 159.335
1 7.70614 22.8655 -4.60985
1 10.1172 23.4357 -3.14734
1 10.0728 23.5156 236.048
1 11.9944 12.419 157.768
1 13.2267 9.79173 157.851
1 34.7647 17.9966 196.031
1 14.6211 11.721 159.395
1 14.5494 11.846 156.572
1 33.1439 15.7664 203.109
1 11.0667 15.3227 154.748
1 12.1884 12.6573 154.939
1 13.6629 14.5623 156.489
1 13.5569 14.7656 153.448
1 10.028 17.9566 151.884
1 11.142 15.4193 151.847
1 12.5155 17.5157 153.474
1 12.8208 17.224 150.603
1 10.4238 18.0567 149.132
1 11.9731 19.7739 150.83
1 12.0419 20.0083 147.918
1 6.65636 8.87824 161.671
1 6.46052 8.8837 164.459
1 15.7091 26.0161 163.744
1 33.8482 6.73717 163.184
1 18.1242 25.3405 165.375
1 7.27229 7.51361 202.788
1 18.3466 25.1799 162.476
1 14.9535 4.08307 160.888
1 34.2475 4.98862 204.492
1 16.0026 25.8404 160.838
1 17.3452 3.3855 162.325
1 17.3739 3.52439 159.439
1 14.2259 7.24614 157.896
1 15.0821 4.19842 157.741
1 16.244 6.24797 159.443
1 16.4005 6.31583 156.576
1 13.0191 9.87564 155.026
1 13.9947 7.1663 155.002
1 15.6034 9.18109 156.382
1 15.6284 9.08632 153.671
1 12.3092 12.4803 152.174
1 9.48337 11.5896 79.1747
1 9.3983 11.5074 81.9376
1 34.4212 17.6298 -1.29362
1 7.8826 9.58737 80.1584
1 10.562 5.80423 211.138
1 7.19672 15.6293 -0.0157006
1 13.1483 9.78216 152.125
1 6.31888 5.01759 207.715
1 14.4845 11.7795 153.65
1 14.8875 11.5825 150.74
1 11.3554 15.3953 149.139
1 12.3758 12.3958 149.156
1 13.7491 14.5774 150.646
1 13.7251 14.497 147.799
1 10.6042 17.9148 146.353
1 7.16328 15.6133 -2.96964
1 6.58989 20.2394 -4.48979
1 34.4526 17.4314 -4.46525
1 7.96944 18.2644 -2.9749
1 8.23678 18.2446 236.308
1 7.97291 22.8741 234.407
1 6.97668 20.2337 234.802
1 9.29232 20.9325 236.198
1 9.20299 20.6199 233.101
1 10.3643 6.00419 213.887
1 11.551 15.2389 146.203
1 12.9551 17.232 147.747
1 10.2075 6.15737 216.744
1 13.0871 17.3026 144.841
1 10.6161 17.692 143.426
1 33.6387 5.39982 85.8051
1 7.41659 4.83591 87.2452
1 7.37743 4.74008 84.5041
1 12.0549 19.9729 145.021
1 33.8774 5.27072 83.01
1 7.75408 22.7622 231.676
1 10.1805 23.4961 232.913
1 10.0608 23.3977 230.017
1 12.2236 19.8436 142.214
1 32.9178 9.58934 163.08
1 10.3962 8.88825 81.7233
1 10.2902 8.83249 84.5673
1 8.97026 6.67044 83.1334
1 7.98008 9.48784 83.3571
1 10.4571 6.24 219.42
1 11.3454 6.21235 84.6583
1 6.48393 7.51664 84.4077
1 10.1565 6.42608 222.241
1 6.55604 7.45292 81.592
1 7.45781 6.26026 164.562
1 7.54007 6.00684 167.534
1 16.0416 25.7434 157.986
1 6.14978 4.12775 165.79
1 18.5254 25.298 159.598
1 11.1076 6.24362 87.5814
1 9.81728 4.29161 85.9398
1 8.67212 6.78355 86.094
1 11.9909 3.48426 87.6878
1 11.9068 3.63822 90.5015
1 34.5992 17.3975 234.728
1 9.50509 4.31099 89.0786
1 7.17118 15.535 -5.82953
1 7.20786 15.3216 233.224
1 10.2551 6.95982 224.986
1 6.80476 19.9255 231.879
1 18.5948 25.3196 156.822
1 9.9442 6.75549 227.673
1 14.9868 4.20522 155.011
1 16.1804 26.1938 155.11
1 34.4518 17.3467 231.906
1 8.15647 17.9866 233.298
1 8.17436 17.8412 230.441
1 9.01359 20.6208 230.395
1 17.643 3.32175 156.466
1 17.6158 3.80762 153.702
1 14.2357 7.21316 152.264
1 15.3905 4.27573 152.155
1 16.4988 6.42911 153.747
1 10.0443 7.24441 230.458
1 16.7979 6.24686 150.931
1 13.5067 9.73236 149.388
1 14.4235 6.9358 149.121
1 15.8509 9.05985 150.741
1 16.1076 9.15111 147.97
1 12.7595 12.3613 146.32
1 7.17811 15.3442 230.458
1 13.7195 9.84907 146.429
1 14.8661 11.8099 148.073
1 9.22739 11.6251 84.9152
1 9.04715 11.5907 87.7215
1 15.1715 11.7347 145.067
1 11.7555 15.061 143.425
1 12.906 12.4051 143.503
1 14.0455 14.5188 145.019
1 14.1945 14.5128 142.03
1 10.7838 17.8671 140.67
1 11.8568 15.1018 140.634
1 13.1734 17.1663 142.211
1 13.2622 17.2118 139.207
1 10.8816 17.9969 137.842
1 12.2563 20.0389 139.251
1 12.6202 20.018 136.279
1 33.8826 6.75547 165.966
1 8.35065 3.37414 167.355
1 8.30992 3.37382 170.372
1 16.1965 26.0909 152.296
1 7.24986 11.0233 230.578
1 6.58307 8.18517 230.861
1 6.159 8.47438 233.714
1 32.9177 7.68784 232.173
1 33.7199 10.298 232.054
1 34.8508 3.84546 168.723
1 18.6414 25.4293 153.721
1 18.7625 25.4585 150.84
1 32.7572 7.8355 235.145
1 15.2516 4.21046 149.29
1 16.1372 26.0747 149.486
1 17.6684 3.6552 150.658
1 17.9379 3.7807 147.863
1 14.5944 7.09761 146.443
1 15.6927 4.38798 146.546
1 16.8824 6.32255 148.053
1 17.1594 6.52132 145.294
1 13.9104 9.75209 143.499
1 14.7402 7.21481 143.564
1 33.9919 5.2734 79.9789
1 16.311 9.05287 145.08
1 16.4303 9.24892 142.131
1 12.9732 12.5176 140.688
1 34.7814 12.9325 232.199
1 14.0798 9.51096 140.646
1 7.53039 10.91 233.46
1 7.33036 11.2336 -5.77526
1 33.5506 10.5025 235.019
1 34.6567 13.2437 234.988
1 6.20606 8.65359 -5.57773
1 6.27023 8.8325 -2.54205
1 32.7248 7.94973 -4.21372
1 33.6491 10.7062 -4.2479
1 7.51314 4.82519 81.6375
1 7.56858 4.73767 78.6005
1 15.5018 11.8385 142.239
1 32.7953 8.03684 -1.23022
1 33.9985 5.26367 77.2048
1 6.56899 7.41242 78.6609
1 15.3502 11.8393 139.341
1 11.7501 15.1414 137.652
1 13.038 12.5407 137.755
1 14.235 14.5415 139.167
1 14.4665 14.704 136.55
1 11.1503 18.1398 134.848
1 11.9842 15.2375 135.029
1 13.3821 17.4367 136.534
1 13.3499 17.2777 133.592
1 11.3435 18.0186 131.824
1 12.4933 23.9627 228.695
1 14.8546 24.5848 227.153
1 12.7264 20.148 133.494
1 12.6679 20.0552 130.626
1 16.4104 26.1494 146.727
1 18.9105 25.4775 148.041
1 18.9096 25.4594 145.276
1 15.5661 4.40145 143.623
1 16.5451 26.0342 143.802
1 18.1498 3.76948 145.194
1 34.5142 13.3475 -4.27517
1 18.0358 3.79947 142.429
1 7.4497 11.3396 -2.74997
1 7.24081 11.284 0.00112087
1 33.6763 10.6696 -1.29245
1 34.6409 13.4177 -1.3239
1 6.301 8.71205 0.276874
1 6.6553 8.891 3.04939
1 32.7029 8.17298 1.79534
1 33.8252 10.8586 1.56536
1 14.9076 6.85928 140.886
1 6.82365 7.2608 75.9089
1 15.5765 4.28579 140.812
1 32.6362 8.36643 4.30375
1 17.2636 6.47431 142.384
1 17.2664 6.28624 139.635
1 13.9774 9.74767 137.86
1 14.9456 7.17574 138.096
1 16.3471 9.07534 139.332
1 16.5489 9.25452 136.394
1 13.1564 12.7178 135.076
1 14.0479 9.89081 135.017
1 15.4775 11.7448 136.347
1 15.5616 11.8814 133.567
1 12.1961 15.2846 132.159
1 11.5413 21.3406 228.713
1 10.3829 18.4676 228.825
1 12.7863 19.1809 227.424
1 12.4109 23.6348 225.719
1 11.5817 21.0726 225.798
1 14.0347 21.9755 227.404
1 13.9429 21.8447 224.369
1 13.1351 12.536 132.258
1 12.4251 23.8235 222.799
1 14.8596 24.4765 224.326
1 14.9582 24.3903 221.288
1 14.5383 14.643 133.597
1 14.6658 14.6156 130.819
1 11.2654 18.0797 129.215
1 12.3131 15.2805 129.211
1 34.7328 13.4322 1.46131
1 13.6504 17.236 130.551
1 7.58159 11.5352 3.14593
1 7.38398 11.6191 5.77724
1 33.8931 10.9351 4.42408
1 34.9444 13.7375 4.28425
1 6.112 8.96735 5.96557
1 6.32736 8.91265 8.85015
1 32.6813 8.37455 7.4203
1 33.66 10.9477 7.3948
1 13.8168 17.2881 127.684
1 11.391 18.1969 126.258
1 13.0019 19.9123 127.95
1 32.8021 8.27538 10.3091
1 12.9817 20.0102 124.825
1 16.788 25.9761 140.915
1 19.2003 25.499 142.51
1 19.1346 25.4627 139.648
1 15.8209 4.26776 137.922
1 16.6723 26.1248 138.083
1 18.16 3.58841 139.643
1 18.3888 3.77345 136.72
1 15.1119 6.99294 135.128
1 15.8929 4.18689 135.175
1 17.4255 6.42627 136.591
1 17.4317 6.5845 133.747
1 14.165 9.93985 132.068
1 15.2115 7.05135 132.111
1 16.5577 9.11796 133.605
1 9.69989 15.7781 228.867
1 8.70005 13.0936 228.955
1 11.1257 13.7282 227.365
1 10.6665 18.3606 225.816
1 9.56989 15.7199 226.128
1 11.9676 16.4295 227.418
1 11.9089 16.3414 224.523
1 11.467 21.1748 222.896
1 10.6137 18.4551 223.103
1 13.0593 19.1454 224.443
1 12.9862 19.1589 221.649
1 34.8118 13.7376 7.19978
1 12.5739 23.7427 219.864
1 7.06207 11.5534 8.79391
1 7.32903 11.6794 11.5365
1 33.53 11.1778 10.1973
1 34.5592 13.8346 10.0373
1 6.18491 9.01141 11.5309
1 6.34738 8.92013 14.4904
1 32.8545 8.52465 12.9893
1 33.6005 11.063 13.0253
1 16.5518 9.22463 130.817
1 34.0101 5.36996 74.1555
1 7.82932 4.72283 75.8896
1 32.7127 8.4073 15.6653
1 13.3305 12.4999 129.141
1 14.469 9.80736 129.141
1 15.5945 12.0239 130.685
1 15.7916 11.8885 127.954
1 12.4947 15.1658 126.193
1 13.5625 12.5581 126.296
1 14.8841 14.6728 127.868
1 14.9986 14.5856 125.036
1 11.5337 17.9712 123.539
1 12.724 15.1531 123.41
1 7.82848 4.82689 73.0163
1 11.5272 21.083 220.064
1 13.9786 21.8056 221.64
1 13.9271 21.7052 218.591
1 14.0436 17.2294 124.899
1 12.313 23.9157 216.959
1 14.8908 24.2568 218.44
1 14.742 24.4923 215.272
1 14.3164 17.072 122.127
1 11.6675 17.9696 120.859
1 13.4276 19.8248 122.089
1 13.3805 19.7743 119.143
1 16.9657 26.0297 135.237
1 19.4309 25.4563 136.716
1 19.5256 25.5343 133.916
1 16.2353 4.56615 132.349
1 5.75031 13.8076 12.7612
1 17.1379 26.168 132.368
1 7.32199 11.7362 14.4238
1 7.46091 11.5992 17.1635
1 33.7827 11.1015 15.9824
1 5.84824 13.8027 15.7047
1 6.31678 8.96795 17.2912
1 6.48734 8.76065 20.2668
1 32.756 8.42414 18.5137
1 33.7679 10.9747 18.6791
1 18.5735 3.77783 133.846
1 6.69145 7.5537 73.0816
1 8.33598 9.61696 71.6392
1 32.5976 8.36238 21.4577
1 6.90629 7.54457 70.2699
1 18.5588 3.95551 130.874
1 15.3192 7.14752 129.202
1 16.0945 4.38391 129.436
1 17.5756 6.63298 130.722
1 17.9435 6.47368 127.963
1 14.311 9.90333 126.217
1 15.3737 7.01065 126.52
1 16.794 9.25064 127.765
1 17.0387 9.155 125.161
1 13.5786 12.3628 123.369
1 7.87001 9.40329 86.0815
1 14.6821 9.57732 123.501
1 10.0492 8.88396 87.6224
1 8.76925 13.0022 226.076
1 9.80427 8.90712 90.4919
1 10.1741 11.1161 227.613
1 10.1945 10.9088 224.756
1 9.71929 15.7167 223.016
1 8.6458 12.8864 223.332
1 11.2878 13.5805 224.587
1 10.9917 13.6436 221.715
1 10.6054 18.1837 220.197
1 9.53143 15.4491 220.198
1 12.185 16.2149 221.593
1 12.1544 16.1196 218.871
1 34.6011 13.6962 18.6748
1 11.4957 21.0955 217.264
1 7.3352 11.5412 20.0812
1 7.29236 11.5662 22.8415
1 33.672 10.9757 21.4687
1 34.5742 13.6745 21.5007
1 6.18271 9.01872 23.0728
1 6.3212 8.73826 25.9932
1 32.6469 8.41156 24.5117
1 33.6736 11.0066 24.4171
1 15.9185 11.6851 124.985
1 16.2012 11.6179 121.958
1 12.7988 15.2135 120.652
1 32.3545 8.32348 27.2188
1 13.7355 12.5568 120.705
1 15.3257 14.3158 122.322
1 15.2635 14.5702 119.263
1 11.7658 18.1539 117.679
1 13.046 15.0053 117.822
1 13.9823 17.1811 119.232
1 14.3567 17.0943 116.435
1 11.9324 17.8098 114.846
1 13.7111 19.8137 116.329
1 13.639 19.7112 113.116
1 34.332 11.5081 164.55
1 10.5802 18.0521 217.21
1 12.9341 19.0568 218.836
1 13.0522 18.852 216.045
1 12.3132 23.73 214.213
1 11.6403 20.9805 214.497
1 13.9118 21.9957 215.665
1 13.7092 21.4942 212.866
1 6.70626 13.3799 168.983
1 12.1332 23.5904 211.256
1 14.7987 24.2037 212.501
1 13.6926 21.5537 210.014
1 17.2644 26.1186 129.466
1 34.139 11.333 167.414
1 19.6511 25.6554 131.011
1 19.8477 25.4862 128.17
1 34.7145 13.5396 24.3701
1 16.4186 4.42778 126.573
1 7.10519 11.3664 25.9067
1 6.9796 11.6181 28.6956
1 33.4092 10.9839 27.2264
1 34.492 13.5905 27.2101
1 34.9872 9.19712 28.6361
1 33.5432 10.9949 33.0065
1 32.5367 8.46136 30.0807
1 33.3358 11.0781 30.0816
1 17.2148 26.0256 126.73
1 18.7993 3.73753 128.116
1 18.9244 3.61092 125.239
1 31.278 10.1102 34.5967
1 15.5843 6.8561 123.533
1 16.4703 4.17485 123.817
1 18.0834 6.33396 125.183
1 18.1658 6.13307 122.507
1 14.7327 9.86219 120.666
1 15.6806 7.10723 120.764
1 17.195 8.91073 122.199
1 17.2025 9.07373 119.276
1 13.9289 12.2653 117.787
1 14.7114 9.65943 118.019
1 34.5458 5.47978 71.4205
1 16.3122 11.8419 119.258
1 16.3568 11.8902 116.473
1 12.8974 15.2146 114.771
1 14.0509 12.4012 114.996
1 8.59864 6.83294 88.9278
1 7.52703 9.54669 88.7872
1 11.071 6.24319 90.3768
1 10.7683 6.12352 93.3686
1 9.62495 4.11406 91.7775
1 8.63498 6.7234 91.7864
1 11.9242 3.44025 93.4085
1 8.61845 12.7396 220.48
1 11.5098 3.26661 96.2673
1 10.2005 10.6783 221.655
1 10.2691 10.5845 218.932
1 34.4672 13.5874 30.0451
1 9.66324 15.327 217.341
1 34.5106 13.6513 32.8673
1 34.4501 13.5716 35.8416
1 32.0872 12.7583 34.3913
1 32.943 15.5254 34.1965
1 33.4937 10.8936 35.832
1 33.6966 10.9969 38.8189
1 31.2313 10.2525 37.4261
1 32.1641 12.8035 37.4991
1 8.03888 5.2565 69.8097
1 7.0061 7.04967 67.4341
1 15.3747 14.4585 116.421
1 31.1528 10.4439 40.0934
1 34.2481 5.58874 68.6436
1 6.13389 9.80999 67.3888
1 15.39 15.6009 66.5474
1 15.5348 14.407 113.452
1 12.1698 17.8525 111.916
1 13.3406 15.0241 111.861
1 14.3916 17.1383 113.488
1 14.7477 17.1128 110.653
1 12.3436 17.8971 109.152
1 13.9307 19.871 110.554
1 13.941 19.7027 107.708
1 8.76475 12.6518 217.651
1 11.1925 13.4125 218.846
1 11.1413 13.3638 216.049
1 10.4876 18.1514 214.304
1 9.75375 15.4547 214.543
1 12.0891 16.1235 215.954
1 12.2692 16.028 213.088
1 11.313 20.6199 211.646
1 10.5263 18.0263 211.447
1 13.0093 18.8228 213.048
1 14.4578 16.875 211.55
1 11.3606 20.7337 208.968
1 13.1492 18.774 210.258
1 15.5309 19.5899 211.938
1 14.1205 17.0329 208.596
1 32.9196 15.5913 37.1432
1 6.52014 8.76453 167.405
1 34.4048 13.678 38.7779
1 33.1692 15.5212 42.9639
1 31.993 13.0188 40.2711
1 32.8246 19.7653 40.3543
1 28.4023 14.431 45.8657
1 23.6086 13.2548 51.3296
1 23.3372 13.1534 46.0236
1 24.3264 15.7005 45.889
1 5.96091 8.70434 170.304