8000
 Atoms. Timestep: 100000
1 18.8592 24.6704 229.115
1 17.8412 21.7352 229.289
1 19.9941 22.6639 227.685
1 18.4739 24.6564 226.273
1 21.1504 25.3874 227.493
1 21.0823 25.2671 224.875
1 16.8983 19.0036 229.181
1 9.80928 8.65069 232.245
1 15.8602 16.2511 229.293
1 18.3396 17.1135 227.623
1 17.6949 21.9451 226.199
1 16.9683 19.1645 226.253
1 19.0896 19.8622 227.749
1 19.2347 20.0553 224.907
1 18.6518 24.6483 223.476
1 10.5239 18.9636 58.2879
1 13.0298 17.9108 57.0814
1 9.29464 8.62056 -1.04999
1 10.4775 19.9772 51.0172
1 17.6545 21.8334 223.18
1 9.94319 8.90176 2.45824
1 30.7559 6.46869 114.405
1 31.8418 8.51176 115.975
1 31.9054 8.59578 113
1 19.986 22.6742 224.892
1 20.0402 22.9056 221.839
1 18.7073 24.8272 220.331
1 21.1088 25.3784 221.961
1 23.5109 26.089 220.51
1 9.66189 20.1631 53.5781
1 12.5818 20.6652 53.2223
1 6.9767 21.02 51.9372
1 15.0742 13.6391 229.128
1 13.9765 10.902 229.417
1 9.76835 8.85862 5.3337
1 16.3498 11.6428 227.856
1 15.924 16.4591 226.284
1 9.67243 9.11435 8.36937
1 15.0903 13.8048 226.323
1 17.4399 14.4745 227.866
1 17.4677 14.427 224.737
1 16.9182 19.29 223.277
1 16.04 16.3583 223.463
1 18.3698 17.2859 224.762
1 18.2639 17.2586 221.841
1 17.8018 21.8648 220.301
1 16.7428 19.1676 220.208
1 19.1751 19.9402 221.797
1 19.1787 19.8871 218.911
1 18.7423 24.7596 217.558
1 17.9326 21.9894 217.532
1 20.1361 22.7827 219.03
1 20.1871 22.6399 215.831
1 15.1303 25.9715 220.326
1 9.53923 8.97748 11.2477
1 17.1595 2.48542 218.724
1 18.5281 24.5841 214.474
1 9.45889 8.9947 14.1385
1 12.8852 8.15452 229.316
1 6.84143 4.70694 155.889
1 14.057 6.15881 227.721
1 13.9506 10.8584 226.241
1 12.9788 8.19193 226.458
1 15.3187 8.81818 227.864
1 15.3812 8.99785 224.906
1 11.0322 19.0082 55.6952
1 11.7182 15.841 58.676
1 7.82503 14.6978 61.4543
1 6.44711 12.5819 60.3316
1 10.66 18.6153 61.4819
1 8.81611 11.9962 61.5148
1 34.2137 7.95462 61.8272
1 34.4928 7.94525 64.6503
1 14.8982 13.7367 223.458
1 9.40035 8.86233 17.0755
1 13.9263 11.1337 223.421
1 16.2319 11.8292 224.984
1 9.32827 8.96428 19.9001
1 16.4912 11.6572 221.835
1 15.9531 16.4564 220.391
1 14.9337 13.8346 220.676
1 17.2929 14.3866 221.966
1 17.4961 14.389 219.026
1 16.6634 19.2369 217.329
1 15.9108 16.4756 217.514
1 18.2248 17.2019 218.97
1 7.78509 14.9772 58.7746
1 18.2874 17.2355 215.772
1 7.68516 15.4053 55.8831
1 6.29176 13.4642 54.4998
1 9.78293 17.3011 51.4286
1 11.3155 12.7657 52.859
1 11.6176 15.4605 53.0134
1 11.5492 15.5825 49.9746
1 10.4874 8.5738 23.736
1 8.29374 19.4509 49.585
1 17.6967 21.9786 214.432
1 10.3136 8.39613 26.779
1 16.7035 19.1255 214.227
1 19.0295 20.0538 215.772
1 19.5881 15.1344 214.483
1 17.4482 22.0809 211.503
1 19.2686 20.0429 212.833
1 20.5364 17.9844 214.323
1 20.8125 17.9123 211.356
1 9.93945 17.5319 48.5229
1 10.6681 20.2565 48.424
1 12.264 18.2919 47.2424
1 15.1017 20.6148 207.584
1 11.1095 20.1492 45.5745
1 13.2162 20.9159 47.1201
1 13.3954 21.1886 44.0638
1 17.5277 18.9564 208.223
1 17.5834 20.681 206.083
1 10.2659 8.56809 29.4947
1 12.991 8.47517 223.331
1 14.3727 6.29705 224.652
1 10.2139 8.5056 32.6109
1 14.4799 6.31804 222.014
1 13.902 11.187 220.476
1 12.9737 8.2218 220.374
1 15.3674 9.02987 221.837
1 15.2763 9.05731 219.074
1 15.1501 13.79 217.767
1 14.0609 10.9786 217.591
1 16.4914 11.5516 219.009
1 16.2651 11.743 216.122
1 15.8652 16.5319 214.55
1 14.814 13.7941 214.676
1 17.2441 14.5904 215.898
1 16.2176 11.8855 213.043
1 18.3045 17.155 212.967
1 17.1756 14.6355 213.047
1 18.7295 12.6189 214.533
1 10.025 8.5501 35.3969
1 18.5794 12.5126 211.588
1 18.2651 17.3302 210.123
1 8.34214 10.5439 39.8963
1 17.1926 14.736 210.383
1 19.8677 15.1461 211.561
1 30.738 6.67439 111.467
1 33.0831 6.15078 112.948
1 33.3699 6.31513 110.154
1 20.5774 17.809 208.525
1 30.6381 6.61367 108.839
1 15.1442 21.0822 204.609
1 18.8629 17.7355 206.165
1 19.7486 20.2374 207.366
1 20.0925 19.6752 204.672
1 15.4238 21.1726 201.791
1 17.9376 20.6351 203.113
1 16.5425 23.4587 200.446
1 12.9972 8.37111 217.45
1 14.3154 6.28929 218.91
1 9.48462 10.0726 43.7096
1 13.1901 20.7663 56.1843
1 32.0174 8.62655 110.15
1 9.6481 10.2685 46.3683
1 31.8871 8.64482 107.262
1 14.2571 6.32887 216.167
1 13.8913 11.0865 214.54
1 13.0304 8.28638 214.534
1 15.3462 8.89645 215.97
1 16.7736 6.9723 214.53
1 13.755 10.9829 211.513
1 12.2979 21.009 59.8428
1 10.7343 12.7308 49.73
1 12.3227 25.4884 64.2966
1 15.4902 6.96951 51.6148
1 10.7749 12.6126 46.8326
1 10.0472 17.5105 45.4567
1 9.19635 14.7687 45.4293
1 11.3621 15.3907 46.7997
1 11.5618 15.701 43.8557
1 7.96971 11.8174 50.4828
1 10.9254 20.2425 42.6247
1 15.2748 9.04382 213.054
1 33.6828 15.325 56.2845
1 17.5428 9.74984 214.435
1 16.8166 7.21182 211.691
1 16.252 11.9785 210.273
1 15.2859 9.36161 209.916
1 17.7061 9.87224 211.497
1 17.6351 10.1212 208.455
1 17.3662 15.9478 207.757
1 9.91344 17.4258 42.3413
1 12.4354 18.3399 44.0277
1 11.1991 18.7789 39.9949
1 17.9567 13.1656 208.097
1 9.69979 20.7225 38.4706
1 12.0268 21.3009 40.3322
1 12.0756 21.5294 37.3947
1 19.686 15.1035 208.867
1 19.5882 14.971 206.031
1 32.048 13.1762 57.6652
1 16.4874 18.6349 204.503
1 17.423 15.6829 204.558
1 11.2998 23.1751 62.4927
1 21.1246 17.1333 204.713
1 18.6472 17.7999 202.997
1 13.1855 21.8504 200.083
1 16.3979 18.4907 201.586
1 20.3342 20.0382 201.727
1 15.5253 21.3417 198.854
1 12.3512 24.6683 196.418
1 14.3586 23.9749 198.326
1 16.1103 25.9636 197.017
1 14.8111 26.1626 211.528
1 15.7956 4.25162 214.707
1 14.7702 26.1879 214.451
1 14.7999 6.78809 209.857
1 14.7496 4.04288 209.252
1 15.7234 4.51563 211.68
1 15.4319 5.99542 207.151
1 33.9411 19.1021 62.4374
1 15.0093 8.83098 207.06
1 13.4869 6.44916 205.306
1 7.63178 19.0007 67.415
1 17.1746 7.59023 208.635
1 17.3243 8.19926 205.634
1 18.6136 12.7571 204.802
1 15.1211 8.87709 204.219
1 16.7227 10.7005 205.684
1 17.9184 8.20054 202.865
1 17.25 15.7636 201.683
1 18.355 12.99 201.745
1 12.1554 20.719 62.9454
1 6.20523 12.4666 63.1999
1 33.4964 10.7528 61.6374
1 9.86836 20.9214 60.4258
1 7.20089 9.9489 62.7975
1 8.03976 7.3316 65.9254
1 6.43458 5.23556 65.1171
1 33.6248 10.574 64.5518
1 9.24194 20.9907 66.1688
1 9.1118 4.68506 66.4075
1 19.5681 15.2444 202.972
1 9.13269 20.947 71.7281
1 19.7344 15.2081 200.241
1 17.8981 20.7247 197.329
1 16.4469 18.5716 198.61
1 18.8444 17.8331 200.217
1 20.4786 19.8596 195.806
1 15.5985 21.4822 192.62
1 30.62 6.54056 106.064
1 9.04674 4.77193 69.0946
1 9.08644 14.7671 42.4785
1 6.77339 5.42687 67.7443
1 10.6185 12.6622 43.9984
1 9.26003 13.2192 39.8613
1 8.9481 17.9902 38.5458
1 7.91577 15.3984 38.4165
1 10.3428 16.0562 40.0673
1 10.5008 15.8957 36.9705
1 8.92023 20.5415 74.8393
1 9.8858 20.8926 35.6446
1 33.1247 6.03273 107.32
1 8.7887 20.5096 77.7572
1 33.0298 6.13637 104.509
1 15.5916 21.2757 195.567
1 30.6713 6.82237 103.239
1 31.9261 9.00312 104.374
1 14.7665 24.0405 195.382
1 16.5892 18.7665 192.862
1 10.9367 22.6119 186.626
1 9.17094 18.0474 35.4756
1 11.2133 18.9006 37.1082
1 11.4707 18.9822 34.1877
1 12.9771 22.224 191.239
1 9.91467 20.618 32.7273
1 12.2996 21.4534 34.3494
1 12.4738 21.3831 31.2864
1 12.1497 24.7651 187.908
1 6.31181 12.3112 151.531
1 8.93164 20.5234 80.4696
1 6.15388 12.1942 154.372
1 14.6062 3.80056 205.596
1 7.30812 18.9405 82.1736
1 33.6544 10.0414 152.967
1 15.118 26.0083 208.628
1 17.2044 3.48215 204.691
1 13.6115 6.82292 202.564
1 14.8814 4.17135 202.845
1 16.0554 6.08928 204.294
1 32.0147 8.84527 101.421
1 17.2749 3.50529 201.723
1 15.3598 9.06797 201.357
1 13.8622 6.97469 199.824
1 16.3464 6.25024 201.497
1 17.7118 8.40765 200.067
1 17.4422 15.9496 198.643
1 14.4363 11.7429 198.525
1 16.9728 11.2787 200.175
1 15.9408 13.9557 197.29
1 7.2773 18.9419 85.1249
1 16.4812 18.593 195.713
1 17.4842 15.8177 195.745
1 7.25976 19.039 88.2671
1 18.8449 18.1008 197.142
1 15.178 16.6162 194.062
1 12.7522 17.2826 192.631
1 12.3859 12.4399 191.201
1 13.7373 14.6312 192.572
1 15.1259 16.8089 191.342
1 13.2591 21.8832 194.035
1 11.4617 15.2718 191.218
1 14.16 19.5515 191.267
1 12.8224 17.4749 189.726
1 10.4268 18.2394 188.36
1 11.1962 22.7093 183.777
1 11.9797 19.9409 186.762
1 7.2268 9.61575 154.451
1 7.34517 9.34911 157.374
1 14.8736 4.24743 199.98
1 7.38475 18.8691 91.1151
1 34.4356 7.24157 155.997
1 15.8275 26.0327 200.03
1 7.35912 18.7231 94.0569
1 17.6011 3.60257 198.764
1 15.4335 9.06761 198.604
1 15.249 4.22523 197.175
1 14.1856 7.01152 196.942
1 16.8104 6.18731 195.688
1 14.5831 11.6442 195.756
1 15.6073 8.88263 195.772
1 16.9183 11.1594 197.309
1 7.98187 15.4786 35.4732
1 17.107 11.2524 194.279
1 9.51477 13.1799 36.9169
1 9.71238 13.1623 34.1042
1 9.04176 18.0582 32.479
1 8.31525 15.1574 32.5756
1 10.652 16.1848 33.8816
1 10.6069 15.8779 31.1642
1 7.63015 18.7496 97.3022
1 10.0003 20.515 29.8059
1 12.3231 12.554 194.174
1 7.52118 18.994 100.138
1 13.2986 9.73196 194.176
1 16.0127 13.7297 194.33
1 14.7059 11.9415 192.693
1 10.0901 13.2144 189.797
1 10.798 10.3548 195.426
1 16.0392 14.0085 191.338
1 14.7912 11.8678 189.651
1 9.29542 17.8855 29.6619
1 11.5118 18.6699 31.4188
1 11.6531 18.8434 28.1829
1 11.4522 15.2084 188.233
1 10.2599 20.7909 26.8108
1 12.5307 21.4179 28.3751
1 12.6785 21.4039 25.4011
1 12.331 12.5361 188.231
1 13.9238 14.6284 189.758
1 7.30714 18.7154 103.041
1 13.8011 14.6896 186.825
1 10.41 18.1087 185.352
1 7.48548 18.8531 105.729
1 11.3986 15.4561 185.382
1 12.9267 17.1913 186.875
1 30.6647 6.73001 100.129
1 32.9774 6.09652 101.536
1 12.6337 17.5091 183.926
1 10.5246 18.2885 182.287
1 11.7769 20.2005 183.921
1 11.8646 20.2288 180.842
1 34.004 9.95499 155.945
1 8.19938 6.7059 157.206
1 8.0635 6.84344 160.065
1 12.66 4.84201 198.196
1 6.6519 4.94219 158.795
1 17.5899 3.59114 195.545
1 14.0783 2.38883 195.347
1 14.3495 7.02649 194.077
1 7.26929 18.7047 109.055
1 10.0542 25.4357 195.066
1 15.3203 4.49585 194.07
1 7.4979 18.7378 111.905
1 16.7601 6.71342 192.557
1 14.1696 7.16531 191.199
1 15.4563 4.49037 191.538
1 15.7614 9.2293 192.707
1 15.7198 9.12256 189.792
1 13.4139 9.8433 188.113
1 33.0798 6.33346 98.6683
1 14.5596 7.10625 188.177
1 10.9718 23.0397 65.0893
1 7.45998 14.6568 64.3037
1 7.6106 19.2474 64.7342
1 13.2352 9.87943 191.191
1 7.2693 10.0414 65.8315
1 7.10894 10.1806 68.8986
1 34.5554 7.88598 67.5189
1 6.15411 12.8501 65.9147
1 7.54112 18.7455 114.922
1 8.19265 7.43358 69.0213
1 16.014 9.13669 186.663
1 7.36304 18.7475 117.614
1 30.4866 6.79673 97.0802
1 31.8203 8.73671 98.5816
1 31.8569 8.74589 95.6274
1 12.4088 12.6212 185.327
1 13.5419 10.0497 185.214
1 14.8242 12.1436 186.793
1 14.9333 12.0319 183.951
1 8.03481 7.44052 72.1015
1 8.36401 15.3376 29.6142
1 6.84064 5.45352 70.7456
1 9.70885 13.1131 31.1029
1 9.86503 13.2638 28.2713
1 9.28424 17.8905 26.7603
1 8.42418 15.1702 26.4399
1 10.6331 15.7944 28.1143
1 10.7701 16.0381 25.2159
1 7.5018 18.4774 120.466
1 10.3934 20.6917 23.7273
1 11.4346 15.4194 182.494
1 7.53744 18.6747 123.791
1 12.6828 12.6844 182.199
1 13.7978 14.8039 183.73
1 13.9971 14.7648 180.789
1 10.3803 18.2721 179.374
1 11.72 15.5481 179.499
1 12.9085 17.528 180.97
1 12.7714 17.619 178.057
1 9.43399 18.0948 23.6709
1 11.8091 18.8263 25.2604
1 11.9412 18.7966 22.4001
1 10.3688 18.2109 176.552
1 10.2922 20.5806 20.8598
1 12.6642 21.5569 22.5197
1 11.9506 22.0597 18.4226
1 11.9663 20.3018 177.931
1 11.9768 20.3035 175.06
1 7.53711 18.6426 126.59
1 34.3792 7.54687 158.893
1 8.99351 4.22946 160.208
1 7.39903 18.5466 129.461
1 9.23182 4.17485 163.415
1 14.5974 24.1895 189.729
1 6.67371 4.9159 161.729
1 13.7962 2.34622 192.501
1 17.7747 3.75763 189.805
1 15.4071 4.30925 188.373
1 16.3077 26.1202 188.232
1 16.6574 6.54717 189.756
1 17.7487 3.68509 187.031
1 14.3837 7.27055 185.069
1 15.266 4.52737 185.106
1 16.7477 6.36944 186.711
1 16.7517 6.48809 183.699
1 13.6994 10.0864 182.307
1 14.5665 7.23733 182.258
1 15.8528 9.44858 183.742
1 7.46479 18.5734 132.562
1 15.8535 9.30363 180.747
1 12.4303 12.7764 179.409
1 7.54308 18.5205 135.621
1 13.2235 9.88902 179.456
1 14.8459 12.0493 180.828
1 14.8489 11.9848 177.918
1 11.3095 15.4707 176.739
1 12.3949 12.7604 176.628
1 13.8077 14.7476 177.974
1 13.789 14.7548 174.96
1 34.5887 8.17945 70.5568
1 9.07856 4.88859 72.0383
1 9.09139 4.77405 75.3379
1 6.85755 5.57021 73.7598
1 10.4938 18.4393 173.614
1 11.5212 15.5492 173.721
1 13.0379 17.4905 175.232
1 13.1331 17.561 172.162
1 10.5319 18.2568 170.69
1 7.57102 18.5487 138.298
1 11.8416 20.4407 172.146
1 11.9455 20.2956 169.036
1 7.67492 18.4752 141.191
1 16.2884 26.2449 185.364
1 18.7968 25.3955 186.75
1 18.5589 25.5286 183.779
1 15.3645 4.4088 182.324
1 16.4151 26.2266 182.174
1 17.6865 3.85312 184.037
1 17.664 3.77064 180.732
1 14.5726 7.35242 179.213
1 8.38753 15.1984 23.6238
1 15.2803 4.54883 179.262
1 9.97684 13.1615 25.3954
1 10.2366 13.2225 22.3499
1 9.69057 18.035 20.6691
1 8.76181 15.5024 20.8405
1 10.9065 16.1104 22.3712
1 10.0585 16.1612 18.4535
1 7.34143 18.3691 143.903
1 9.4907 21.1213 16.8727
1 16.8719 6.42427 180.703
1 7.66734 18.3415 147.182
1 30.6188 6.76761 93.8472
1 33.0078 5.94828 95.6522
1 33.0803 6.2912 92.5719
1 16.8843 6.53595 177.799
1 30.5373 6.52768 90.8898
1 31.9288 8.84161 92.6177
1 31.9134 8.6636 89.6831
1 8.53419 18.2139 16.8791
1 10.9023 19.354 18.3458
1 10.9199 19.2259 15.6255
1 13.2227 10.0072 176.663
1 9.54277 21.158 13.9367
1 11.8596 21.924 15.5357
1 11.841 21.7371 12.4471
1 14.4838 7.28364 176.587
1 15.7082 9.42683 178.064
1 7.53963 18.2366 150.083
1 15.7109 9.38008 175.133
1 12.378 12.6368 173.423
1 7.65451 18.0488 153.107
1 13.4491 9.88399 173.547
1 14.7102 12.0294 175.072
1 15.0912 12.0921 171.906
1 11.5412 15.6685 170.816
1 12.5985 12.8462 170.692
1 14.1632 14.7193 172.122
1 13.9292 14.9206 169.223
1 10.7051 18.2969 167.626
1 11.4508 15.6578 167.773
1 12.9501 17.6009 169.248
1 13.0532 17.6794 166.034
1 10.3755 18.2612 164.715
1 12.0982 20.3546 166.24
1 12.2096 20.1221 163.333
1 16.2934 26.0862 179.414
1 18.6439 25.5095 180.898
1 7.67023 18.2788 156.123
1 18.6733 25.5342 177.925
1 15.2982 4.29126 176.473
1 7.79105 18.3323 158.885
1 16.2675 26.1462 176.409
1 17.7421 3.92677 177.853
1 17.7743 3.68744 174.875
1 14.5642 7.28272 173.532
1 15.3662 4.6031 173.443
1 16.8458 6.53363 175.072
1 16.8186 6.66469 171.827
1 13.5477 10.1425 170.682
1 14.2967 7.41274 170.63
1 15.8425 9.31503 172.016
1 15.8197 9.50776 169.117
1 12.6391 12.9608 167.784
1 6.16229 12.8081 68.8374
1 6.07154 12.8226 71.8992
1 33.3513 10.8571 70.2187
1 13.5748 10.3039 167.778
1 7.52211 18.1813 161.82
1 7.07537 10.243 72.0378
1 14.9313 12.332 169.194
1 7.48956 18.0775 164.841
1 14.9194 12.2087 166.065
1 11.4788 15.6635 164.904
1 12.4787 12.74 164.864
1 13.9533 14.9663 166.1
1 13.7691 14.8509 163.146
1 10.8313 18.2075 161.891
1 11.5383 15.4817 161.852
1 7.12577 10.0488 74.8669
1 7.62364 15.5361 16.8834
1 34.3835 8.17859 73.4928
1 9.05851 13.5309 18.397
1 9.16973 13.5923 15.6039
1 8.63019 18.3043 14.1267
1 7.77008 15.6014 13.8948
1 10.1416 16.3751 15.3878
1 10.1928 16.2414 12.5177
1 7.54203 18.2575 167.851
1 9.59559 20.9593 11.166
1 13.1115 17.5391 163.248
1 7.40427 18.1331 170.807
1 12.9307 17.6942 160.413
1 10.6682 18.493 158.902
1 12.268 20.3575 160.222
1 12.2356 20.2725 157.318
1 16.2157 26.1715 173.497
1 18.6625 25.5616 175.014
1 18.6668 25.749 172.16
1 8.68463 18.1807 11.0835
1 10.8689 19.0073 12.7376
1 11.0421 18.9904 9.60049
1 15.493 4.52433 170.573
1 9.63652 21.0739 8.20763
1 12.2738 21.7935 9.49524
1 12.1574 21.6704 6.83993
1 16.3817 26.3083 170.635
1 17.7316 4.03831 171.995
1 8.95787 20.0227 172.382
1 17.7513 3.84049 169.094
1 14.5332 7.54642 167.564
1 7.51597 18.0914 173.764
1 15.4132 4.67299 167.63
1 16.7388 6.75231 168.92
1 16.8721 6.84559 166.091
1 13.509 10.0836 164.789
1 30.7026 6.79543 88.1096
1 33.0274 6.07216 89.4683
1 32.9596 6.27804 86.6185
1 14.4629 7.43715 164.538
1 15.8326 9.47619 166.179
1 15.7575 9.46199 163.197
1 12.5004 12.8786 161.773
1 13.4312 10.1795 161.699
1 14.6994 12.1793 163.308
1 14.9432 12.1397 160.383
1 11.542 15.7348 158.921
1 12.454 12.9316 158.935
1 7.42102 18.2536 176.726
1 13.9374 14.7686 160.275
1 13.9852 14.8904 157.434
1 7.4586 18.1046 179.508
1 10.709 18.3698 155.966
1 11.7451 15.7724 155.991
1 12.9768 17.6495 157.471
1 13.035 17.5294 154.446
1 10.3829 18.511 153.281
1 11.8614 20.4662 154.396
1 11.915 20.278 151.571
1 33.3964 10.9167 73.3013
1 8.17998 7.57105 75.0054
1 8.01007 7.56892 78.0409
1 6.61497 5.60375 76.6752
1 34.5265 8.123 76.5211
1 9.0001 5.01845 78.0059
1 9.08332 4.73652 80.711
1 6.72783 5.55588 79.4945
1 6.33764 12.0087 157.553
1 7.43062 17.9282 182.623
1 6.36833 12.2762 160.428
1 16.1772 26.2676 167.748
1 7.60088 18.2157 185.559
1 33.6036 10.0626 158.94
1 18.5665 25.64 169.239
1 30.6104 6.67236 85.3446
1 32.0724 8.71234 86.6013
1 32.0197 8.77564 83.7555
1 18.6698 25.7052 166.359
1 15.3672 4.59508 164.604
1 16.3695 26.4597 164.863
1 7.62405 15.5656 10.9467
1 17.8069 4.06672 166.247
1 9.3338 13.5575 12.7701
1 9.43837 13.6983 9.68871
1 8.65348 18.3845 8.14858
1 7.84421 15.5751 8.25983
1 10.1714 16.2651 9.63053
1 10.2764 16.2576 6.83864
1 7.77304 18.3556 188.507
1 9.87198 21.0005 5.22709
1 17.7164 4.09131 163.083
1 7.49949 18.0741 191.42
1 14.4235 7.48911 161.636
1 15.4637 4.7739 161.6
1 16.9721 6.75177 163.231
1 16.7258 6.75662 160.095
1 13.364 10.2016 158.979
1 14.4035 7.49687 158.839
1 15.9138 9.51264 160.361
1 8.72848 18.455 5.22205
1 10.9949 19.1617 6.64447
1 11.1622 18.9819 3.83974
1 15.7469 9.3383 157.285
1 9.84677 21.0188 2.2337
1 12.3625 21.6992 3.99374
1 12.4961 21.7621 0.916269
1 12.6279 12.9632 155.868
1 13.583 10.3047 155.827
1 7.44934 17.8709 194.312
1 14.883 12.2269 157.413
1 14.8793 12.2136 154.291
1 6.22874 15.853 201.226
1 11.372 15.7517 153.076
1 12.4376 12.9058 153.013
1 14.05 14.9335 154.324
1 13.7194 15.0538 151.647
1 10.2899 18.5004 150.14
1 11.3547 15.6075 150.163
1 12.7555 17.7526 151.498
1 12.8583 17.7902 148.688
1 10.5749 18.4588 147.239
1 12.0476 20.3333 148.704
1 12.0292 20.3721 145.716
1 7.14549 9.4845 160.188
1 7.22021 9.49365 163.229
1 16.1743 26.422 161.669
1 34.4953 7.52248 161.842
1 18.6015 25.8673 163.248
1 8.79149 8.29088 202.557
1 18.6993 25.8707 160.266
1 15.3486 4.70699 158.703
1 7.02999 6.19156 203.543
1 16.3361 26.4473 158.751
1 17.8479 4.10293 160.202
1 17.8325 3.98111 157.246
1 14.353 7.32105 155.875
1 15.2936 4.60424 155.939
1 16.8763 6.75882 157.236
1 16.7811 6.75738 154.445
1 13.3115 10.1826 152.983
1 14.4622 7.60187 152.904
1 15.858 9.66801 154.321
1 15.9418 9.74897 151.64
1 12.4194 12.883 150.069
1 6.09768 12.7839 74.7717
1 6.20815 13.0408 77.5015
1 7.97764 15.6231 5.28048
1 33.3488 11.0639 76.2308
1 12.4205 5.9109 210.596
1 9.40718 13.5467 6.75779
1 13.5929 10.315 150.002
1 34.4399 5.01413 206.9
1 14.8409 12.4163 151.327
1 14.9953 12.4421 148.411
1 11.5498 15.8628 147.052
1 12.3852 13.0661 147.058
1 13.7729 15.1374 148.578
1 13.9102 15.1727 145.661
1 10.3979 18.4377 144.033
1 9.47247 13.5552 3.9718
1 8.95329 18.1982 2.36052
1 7.88429 15.4539 2.39322
1 10.3523 16.3252 4.09406
1 10.6679 16.5176 0.955321
1 10.2238 21.1898 -0.493995
1 9.01549 18.3416 -0.560954
1 11.4721 19.1564 0.934021
1 10.5251 19.5316 -2.89017
1 11.6245 6.02386 213.201
1 11.2724 15.8299 144.253
1 12.7985 17.6632 145.479
1 11.4748 6.25246 216.03
1 12.6674 17.8958 142.564
1 10.4413 18.8132 141.099
1 30.6444 6.74497 82.0703
1 33.1136 6.1045 83.8882
1 33.1015 6.36475 80.9606
1 11.9208 20.4553 142.866
1 30.8203 6.85942 79.3516
1 9.45026 21.5721 232.058
1 11.8641 22.3229 -3.00824
1 11.6729 22.2755 230.582
1 12.0546 20.7088 139.94
1 33.6637 10.2995 161.844
1 7.03466 10.3043 77.9151
1 6.96962 10.3068 80.8274
1 34.3242 8.34031 79.4021
1 33.4262 11.1159 79.2182
1 11.3045 6.47603 218.898
1 7.97207 7.57908 80.806
1 32.114 8.99139 80.8547
1 11.6202 6.49612 221.843
1 31.9872 8.88687 77.7307
1 8.14425 6.83038 163.024
1 8.1419 6.70227 166.048
1 16.3413 26.3545 155.916
1 6.85133 4.68295 164.724
1 18.8606 25.8482 157.466
1 8.17274 7.48843 83.8252
1 6.75926 5.64842 82.5096
1 34.4534 8.273 82.2508
1 9.10075 4.74074 83.4961
1 9.05784 4.94953 86.838
1 8.28206 15.6127 -0.52625
1 6.80259 5.49025 85.2528
1 9.46257 13.5582 0.977417
1 8.67572 14.143 -2.76108
1 11.3292 6.54366 224.834
1 8.31948 18.8683 232.059
1 18.7441 25.8489 154.393
1 11.3307 6.42114 227.842
1 15.3005 4.75568 152.994
1 16.3841 26.3656 152.866
1 7.47102 16.154 232.069
1 9.70143 16.9144 -2.69633
1 9.87301 16.816 230.671
1 10.7918 19.5421 230.67
1 17.6593 4.11611 154.286
1 17.8859 4.24444 151.522
1 14.5325 7.4846 150.041
1 15.4513 4.75692 150.043
1 16.9939 6.76387 151.573
1 11.2291 6.54022 230.683
1 16.9356 6.74549 148.705
1 13.5563 10.2618 147.152
1 14.6941 7.55906 147.14
1 15.9871 9.71368 148.598
1 15.8726 9.72327 145.5
1 12.4694 13.2793 144.094
1 8.77076 14.1002 230.825
1 13.4762 10.3604 144.169
1 14.8042 12.4459 145.556
1 6.13229 12.8543 80.6703
1 6.38349 12.8944 83.7855
1 14.9102 12.495 142.759
1 11.4642 15.7252 141.195
1 12.5997 12.9629 141.169
1 13.8425 15.1502 142.596
1 13.893 15.0769 139.799
1 10.3957 18.7125 138.306
1 11.5463 15.7939 138.378
1 12.7891 17.9964 139.754
1 12.9101 17.8677 137.021
1 10.5708 18.7435 135.465
1 12.2437 20.5887 137.101
1 12.0387 20.6872 133.973
1 34.6276 7.49646 164.578
1 9.22552 4.10624 166.179
1 9.09122 4.35138 169.032
1 16.3034 26.4886 150.064
1 8.27822 10.5907 230.762
1 7.53259 7.66536 230.82
1 7.00141 7.92025 -2.4747
1 33.8962 7.01769 232.324
1 6.23321 9.77886 232.234
1 6.61728 4.71392 167.753
1 18.9131 25.8497 151.369
1 18.9711 25.7725 148.583
1 33.8267 7.30077 -0.870286
1 15.2779 4.89142 147.113
1 16.2618 26.4852 147.202
1 17.9148 3.90055 148.593
1 17.7528 3.97864 145.905
1 14.5815 7.45773 144.269
1 15.5702 4.84205 144.209
1 16.9385 6.65735 145.608
1 16.8702 6.68532 142.659
1 13.5191 10.3167 141.226
1 14.4353 7.53075 141.269
1 30.7614 6.85243 76.2391
1 15.7523 9.73992 142.641
1 16.0063 9.495 139.781
1 12.4428 12.9008 138.349
1 7.02175 12.5999 232.254
1 13.5864 10.2733 138.336
1 8.28764 10.6294 -2.50995
1 8.55613 10.8538 0.875301
1 6.08013 10.0792 -0.81276
1 7.15259 12.8257 -0.786941
1 7.37546 8.19997 0.848791
1 7.49055 8.2529 3.72542
1 33.6865 7.48339 1.93316
1 6.02199 10.3431 2.12287
1 33.1364 6.21198 77.994
1 33.2127 6.04839 75.0797
1 14.8574 12.2328 139.779
1 33.8717 7.75252 4.88244
1 31.1875 6.91027 73.5144
1 32.1886 9.08638 74.8725
1 14.9669 12.4056 136.975
1 11.3617 16.005 135.431
1 12.2905 12.9877 135.262
1 13.6152 15.0484 136.835
1 13.7479 15.1601 134.002
1 10.5363 18.8827 132.505
1 11.2397 16.0395 132.409
1 12.686 17.753 133.779
1 12.8812 17.9669 131.009
1 10.2896 18.8127 129.498
1 13.9936 23.0659 229.064
1 16.2102 23.8645 227.638
1 12.0781 20.7271 131.008
1 12.0708 20.7071 128.157
1 16.415 26.4457 144.241
1 18.7846 25.6738 145.666
1 18.809 25.9762 142.683
1 15.423 4.76666 141.1
1 16.3459 26.4159 140.96
1 17.6186 4.05938 142.487
1 6.99523 12.9667 2.1791
1 17.8488 4.06305 139.679
1 8.49553 10.9375 3.81805
1 8.28141 10.9436 6.81817
1 6.10363 10.1225 4.98253
1 6.94845 13.0632 5.25496
1 7.535 8.17737 6.6927
1 7.21939 8.22291 9.55868
1 33.7705 7.6189 7.75715
1 34.5219 10.288 8.13307
1 14.5261 7.52028 138.21
1 32.0717 8.93694 71.6744
1 15.3663 4.77366 138.194
1 33.4607 7.5033 10.7098
1 16.8767 6.64567 139.732
1 16.6875 6.9232 136.616
1 13.582 10.2791 135.567
1 14.2479 7.64477 135.441
1 16.049 9.74506 136.805
1 15.7578 9.76909 133.957
1 12.627 13.1099 132.497
1 13.7315 10.3665 132.28
1 15.028 12.531 134.062
1 14.8638 12.6089 130.922
1 11.4216 16.1322 129.444
1 12.968 20.2362 229.085
1 12.2507 17.5227 229.131
1 14.6109 18.2844 227.795
1 14.0809 22.98 226.131
1 13.0297 20.5058 226.245
1 15.307 20.9665 227.839
1 15.3791 21.1915 224.702
1 12.3993 13.337 129.609
1 13.9047 23.2394 223.279
1 16.2562 24.0172 224.704
1 16.4059 23.9012 221.918
1 13.7487 15.2553 131.126
1 13.9207 15.1112 128.025
1 10.4897 18.8349 126.699
1 11.362 15.9634 126.587
1 6.9306 13.0729 8.17924
1 12.9525 18.0171 128.142
1 8.35343 10.9936 9.68332
1 8.14241 10.8594 12.5588
1 34.5434 10.2258 10.9168
1 6.85933 12.8014 11.0314
1 7.09685 8.22112 12.5423
1 7.07559 8.46771 15.3898
1 33.5097 7.48411 13.9938
1 34.3193 10.2502 13.7967
1 12.7646 17.9993 125.222
1 10.3672 18.984 123.688
1 11.9208 20.9808 125.175
1 33.3522 7.99323 16.7229
1 12.0122 20.7304 122.269
1 16.3804 26.4811 138.115
1 18.9124 25.924 139.803
1 18.6926 25.9952 136.958
1 15.1623 4.77867 135.277
1 16.1214 2.18447 135.241
1 17.7154 4.24793 136.821
1 17.6829 4.23984 133.816
1 14.5192 7.76229 132.417
1 15.311 4.96747 132.414
1 16.6812 7.05789 134.014
1 16.6996 6.99068 131.192
1 13.3638 10.4932 129.441
1 14.2346 7.89995 129.513
1 15.9216 9.73626 130.814
1 11.074 14.8918 229.276
1 10.0389 12.3262 229.2
1 12.5722 12.8769 227.851
1 12.0195 17.8479 226.325
1 10.9803 15.2343 226.487
1 13.6051 15.6036 227.745
1 13.4661 15.9117 224.961
1 12.9205 20.5469 223.392
1 11.9922 17.8602 223.268
1 14.5691 18.3659 224.749
1 14.487 18.4767 221.806
1 6.79449 12.9431 14.0953
1 13.9603 23.4834 220.471
1 8.18329 10.9612 15.5175
1 8.06257 11.0163 18.4467
1 34.4077 10.4326 16.8105
1 6.73154 12.8957 16.7015
1 7.04146 8.44438 18.4986
1 8.12038 7.9696 22.1055
1 34.3407 7.14524 20.9224
1 6.58145 9.83657 20.7241
1 15.6795 9.75696 127.884
1 30.7615 6.72833 70.5497
1 33.2645 6.12877 72.0894
1 34.5387 7.19852 23.6292
1 12.522 13.1643 126.635
1 13.405 10.4405 126.382
1 14.9281 12.584 127.952
1 14.7105 12.4237 124.948
1 11.325 16.1203 123.723
1 12.4389 13.2778 123.638
1 13.7398 15.186 125.075
1 13.8115 15.3986 122.164
1 10.2898 18.8579 120.691
1 11.4836 16.0683 120.662
1 33.2206 6.23359 69.3423
1 12.9832 20.4964 220.28
1 15.3741 21.2517 221.649
1 15.3252 21.2683 218.845
1 12.865 17.9738 122.241
1 13.6554 23.3638 217.603
1 16.2601 24.001 218.842
1 16.1334 24.0548 216.043
1 12.7221 18.2916 119.248
1 10.1917 18.7439 117.899
1 11.9512 20.8714 119.268
1 12.011 20.5822 116.356
1 16.2037 26.5552 132.32
1 18.7091 25.8383 133.698
1 18.616 26.025 130.655
1 15.206 4.98503 129.366
1 7.68697 12.5137 20.8546
1 16.0096 2.32544 129.373
1 9.15971 10.5671 22.292
1 9.25755 10.4647 25.2763
1 6.74961 9.90199 23.4984
1 7.67073 12.464 23.8534
1 7.9895 8.01738 25.0216
1 7.92938 7.98614 28.3474
1 34.34 7.26855 26.5588
1 6.55654 9.72016 26.4995
1 17.5175 4.17606 130.918
1 32.0604 8.75302 69.0016
1 33.3693 10.8214 67.3531
1 34.2444 7.22183 29.5839
1 32.1581 8.48681 66.2269
1 17.602 4.63341 128.013
1 14.1697 7.59485 126.488
1 15.1951 4.95999 126.213
1 16.7204 7.18749 128.089
1 16.9012 7.23099 125.137
1 13.4738 10.5807 123.291
1 14.4706 7.85465 123.654
1 15.8167 9.70957 125.133
1 15.9198 9.87977 122.216
1 12.2227 13.2487 120.628
1 33.5362 10.9629 82.495
1 13.222 10.5751 120.653
1 7.23141 10.2713 83.7605
1 10.3326 12.3634 226.368
1 7.22265 10.1191 86.5707
1 11.6505 10.2509 227.825
1 11.4181 10.2992 224.77
1 11.1611 15.151 223.368
1 10.1358 12.5576 223.337
1 12.4328 13.1714 224.935
1 12.608 13.0798 221.855
1 11.9657 17.9389 220.461
1 10.8973 15.105 220.352
1 13.511 15.7517 221.873
1 13.4396 15.8014 219.053
1 7.52602 12.454 26.6579
1 13.0938 20.6429 217.378
1 8.93098 10.6314 28.1723
1 8.83845 10.4673 31.04
1 6.42816 9.89935 29.4655
1 7.33239 12.5412 29.545
1 7.76763 7.9599 31.1364
1 7.82533 7.98808 33.9298
1 34.2437 7.35439 32.3859
1 6.31728 9.98246 32.5363
1 14.91 12.6686 122.078
1 14.5622 12.5359 119.07
1 11.2514 16.1352 117.665
1 34.0763 7.62082 35.144
1 12.4125 13.4667 117.848
1 13.65 15.4065 119.072
1 13.9053 15.3554 116.156
1 10.56 18.512 114.931
1 11.3656 15.9403 114.97
1 12.9094 17.8632 116.224
1 12.7048 18.046 113.233
1 10.4839 18.6774 111.894
1 11.7894 20.8145 113.359
1 12.0459 20.8363 110.401
1 6.33866 12.3245 163.276
1 12.0038 17.8087 217.701
1 14.3328 18.4776 218.978
1 14.3998 18.5968 215.901
1 13.6841 23.478 214.683
1 12.7997 20.6294 214.592
1 15.2184 21.3184 215.825
1 15.1128 21.3523 213.109
1 7.88697 14.2345 167.846
1 13.7908 23.422 211.739
1 16.0918 24.0855 212.911
1 14.9902 21.6654 210.055
1 16.0643 2.46938 126.478
1 6.32296 12.2935 166.296
1 18.554 26.4057 127.86
1 18.6048 26.1852 124.926
1 7.26648 12.6806 32.4321
1 15.1317 5.02258 123.477
1 8.64101 10.5276 33.9245
1 8.7374 10.5319 36.9971
1 6.48743 10.0881 35.3759
1 7.31182 12.6718 35.3842
1 7.55067 8.00399 36.724
1 7.08874 9.65024 42.4537
1 33.5593 7.47676 38.2973
1 6.08622 9.83399 38.2802
1 16.1692 2.34744 123.537
1 17.6453 4.49961 125.004
1 17.7259 4.38859 121.992
1 33.2302 8.94254 43.5184
1 14.2653 7.84878 120.501
1 15.1879 5.18119 120.518
1 16.5731 7.03414 122.249
1 16.5112 7.08994 118.937
1 13.4121 10.448 117.585
1 13.9833 7.73405 117.417
1 15.6146 9.90799 119.214
1 15.7239 9.70683 116.323
1 12.3736 13.2296 115.127
1 13.1646 10.5269 114.61
1 30.6841 6.55712 67.7668
1 14.8631 12.4739 116.259
1 14.8785 12.6158 113.234
1 11.2599 16.0061 111.834
1 12.2073 13.2781 111.935
1 34.4986 8.084 85.2815
1 33.5204 10.6617 85.2438
1 8.25528 7.5659 86.6739
1 8.13043 7.53636 89.5701
1 6.59267 5.8007 88.1697
1 34.5888 8.37734 88.0513
1 8.96556 4.80997 89.6847
1 10.1786 12.3948 220.445
1 8.88201 5.01512 92.6183
1 11.4927 10.4025 221.902
1 11.4571 10.332 219.098
1 7.10793 12.5704 38.3211
1 10.9588 15.0912 217.593
1 8.1986 11.9682 42.2043
1 8.1083 12.0648 44.9845
1 34.302 11.5144 43.7467
1 6.74789 14.1598 43.7045
1 6.87199 9.58646 45.387
1 7.04497 9.89633 48.3802
1 33.2441 9.06866 46.5555
1 34.3587 11.6525 46.6763
1 32.9983 5.98193 66.3861
1 33.0073 6.21277 63.4348
1 13.6488 15.1216 113.434
1 33.0683 9.25623 49.2976
1 30.7043 6.43884 64.7457
1 31.8998 8.5888 63.1987
1 9.0041 16.7137 62.9739
1 13.7302 15.4346 110.193
1 10.3991 18.8367 108.854
1 11.3072 16.2136 108.856
1 12.8244 18.2733 110.381
1 12.9285 18.2465 107.257
1 10.3837 19.0735 105.968
1 11.9042 20.868 107.453
1 12.1062 20.7249 104.576
1 10.0347 12.3657 217.528
1 12.6086 13.0018 218.826
1 12.4911 13.0816 215.905
1 11.926 17.9827 214.837
1 10.9405 15.0649 214.659
1 13.3426 15.6148 216.11
1 13.5805 16.0216 213.243
1 12.825 20.8364 211.573
1 11.9789 17.9345 211.685
1 14.2562 18.8686 213.023
1 15.7775 17.0665 211.588
1 12.4341 21.284 208.743
1 14.0004 19.022 210.13
1 16.6773 19.5373 211.336
1 15.4908 17.2339 208.777
1 6.62422 14.1496 46.4563
1 7.20464 9.4667 166.198
1 8.15503 12.1683 47.8006
1 6.45972 13.5996 51.7588
1 34.1254 11.6523 49.8785
1 7.59758 16.7495 49.8605
1 33.8057 11.4969 52.8139
1 33.4729 11.8088 55.6676
1 31.4753 11.0509 53.8256
1 31.9763 13.793 54.6042