8000
 Atoms. Timestep: 250000
1 16.544 24.9778 231.294
1 15.6793 22.3088 231.196
1 18.1392 22.8626 229.807
1 16.577 24.8857 228.532
1 19.0291 25.6691 229.87
1 19.0254 25.6378 226.969
1 14.7044 19.5398 231.399
1 8.09761 8.49955 234.32
1 13.7336 16.8343 231.278
1 16.4232 17.5298 229.932
1 15.6537 22.1668 228.523
1 14.698 19.463 228.513
1 17.2333 20.2241 229.877
1 16.9289 20.258 226.965
1 16.6187 24.9958 225.533
1 16.3258 15.3646 66.3632
1 18.5004 15.0061 64.9779
1 7.7165 8.5465 236.926
1 8.77506 20.14 34.011
1 15.58 22.417 225.485
1 8.07837 8.61725 239.761
1 32.7194 5.34743 120.21
1 33.7476 7.42614 121.775
1 34.0388 7.54206 119.046
1 18.0733 22.8385 226.815
1 18.0652 23.0211 224.185
1 16.6271 25.1715 222.671
1 19.1269 25.5349 224.189
1 21.6664 26.3503 222.723
1 24.905 11.946 59.969
1 10.0236 18.0016 35.2844
1 31.8571 23.7641 29.6366
1 12.7897 14.1846 231.355
1 11.8032 11.4783 231.296
1 7.88645 8.57957 -10.6515
1 14.1934 12.0942 229.705
1 13.9751 16.7971 228.348
1 7.89374 8.53703 -7.56832
1 12.8763 14.1853 228.317
1 15.2277 14.934 229.886
1 15.2306 14.7326 226.968
1 14.5209 19.5972 225.576
1 13.7222 16.7371 225.553
1 16.2112 17.4637 226.761
1 16.1378 17.4488 224.053
1 15.6167 22.3812 222.489
1 14.5753 19.5729 222.641
1 16.9911 20.2233 224.152
1 17.0518 20.1793 221.274
1 16.568 24.961 219.715
1 15.6043 22.3597 219.647
1 18.121 22.8708 221.208
1 18.2964 23.0768 218.165
1 12.9331 26.232 225.442
1 7.72192 8.77039 -4.70802
1 15.1125 2.55481 220.944
1 16.6096 25.1492 216.732
1 7.81216 8.67867 -2.03524
1 10.7551 8.59509 231.322
1 6.90165 4.25838 160.499
1 12.124 6.43027 229.813
1 11.7707 11.313 228.504
1 10.9037 8.6142 228.498
1 13.2623 9.36407 229.772
1 13.2895 9.21961 226.898
1 14.2386 8.89364 66.5861
1 14.7631 13.5177 65.3204
1 12.122 13.9379 69.1753
1 10.5515 12.2126 67.4802
1 17.5609 17.5937 67.8895
1 13.0505 11.1823 69.2887
1 9.25994 10.0003 68.8151
1 9.91166 7.17069 71.6537
1 12.9699 14.0393 225.434
1 7.82177 8.62897 0.890359
1 11.9318 11.3446 225.619
1 14.0918 12.1082 227.011
1 7.60428 8.46438 3.70874
1 14.2324 11.9648 224.043
1 13.6836 16.7498 222.694
1 12.6975 14.0495 222.619
1 15.2405 14.8532 224.167
1 15.1604 14.9216 221.186
1 14.6966 19.4558 219.804
1 13.8887 16.8318 219.661
1 16.061 17.4502 221.301
1 13.3158 11.5936 66.5694
1 16.2791 17.6714 218.251
1 15.8478 10.8813 65.0206
1 22.9567 12.347 36.7533
1 6.19179 19.7763 32.6553
1 6.55184 14.9081 33.739
1 12.8649 14.0122 35.2701
1 7.61184 17.7145 30.958
1 7.82411 8.70322 6.56014
1 33.3375 22.0504 31.0668
1 15.7188 22.401 216.903
1 7.67522 8.50411 9.51509
1 14.7236 19.7178 217.028
1 17.1676 20.4302 218.403
1 17.6329 15.4781 216.844
1 15.8262 22.4677 214.112
1 17.2124 20.2273 215.584
1 18.7131 18.2719 216.816
1 18.7247 18.278 213.974
1 6.1255 19.9309 29.9115
1 7.12836 22.5941 29.7004
1 8.55443 20.4784 28.6084
1 11.6008 25.1846 207.694
1 7.19827 22.2847 27.0208
1 9.45983 23.1061 28.5248
1 9.60813 22.9916 25.6228
1 14.6595 19.6971 211.087
1 13.3256 21.8706 210.092
1 8.03242 8.61994 12.4284
1 10.8499 8.56785 225.632
1 12.1215 6.42829 227.001
1 8.01326 8.79021 15.3757
1 12.2636 6.53341 224.181
1 11.6533 11.1258 222.781
1 10.8502 8.37893 222.733
1 13.1729 9.36981 224.057
1 13.1014 9.2454 221.295
1 12.922 14.2607 219.794
1 12.0172 11.4332 219.842
1 14.1733 11.9788 221.292
1 14.2773 12.2086 218.213
1 13.7368 17.1169 216.875
1 12.9542 14.1565 216.832
1 15.2733 14.9472 218.354
1 14.3434 12.1694 215.366
1 16.35 17.7397 215.308
1 15.3212 15.0282 215.271
1 16.8169 12.8672 216.743
1 7.62907 8.66444 18.113
1 16.8407 12.967 214.014
1 16.4427 17.4892 212.476
1 6.56956 10.8567 22.4308
1 15.3905 14.811 212.502
1 17.7198 15.5882 213.801
1 32.6392 5.53875 117.395
1 6.40593 4.83834 119.108
1 6.61526 5.08326 116.252
1 18.6104 18.4177 211.119
1 33.0038 5.46358 114.777
1 10.5254 22.6059 206.227
1 16.0337 17.7477 209.7
1 18.563 21.1327 207.821
1 15.7916 22.4971 208.641
1 13.2073 21.7629 204.859
1 15.774 21.2892 206.496
1 15.0635 23.7429 203.85
1 10.7973 8.60429 219.727
1 12.3983 6.52229 221.105
1 6.62252 10.9144 25.3172
1 23.7444 15.0083 36.8135
1 34.3486 7.68661 116.24
1 6.39645 10.8988 28.3942
1 34.4309 7.50965 113.255
1 12.1922 6.64936 218.283
1 11.9515 11.3745 216.816
1 11.0042 8.60817 216.623
1 13.1304 9.42569 218.262
1 14.5186 7.511 216.972
1 11.8414 11.5095 213.877
1 19.1876 19.6105 66.8088
1 6.55034 15.101 30.9072
1 16.8438 25.0071 72.4269
1 15.9845 10.4211 35.3017
1 6.50457 15.104 28.0621
1 6.02489 19.7989 26.8393
1 33.7019 17.1654 26.779
1 7.4847 17.8903 28.2792
1 7.34456 17.84 25.4688
1 33.9376 13.0021 32.2117
1 7.13462 22.6815 23.9922
1 13.2215 9.56961 215.089
1 30.2015 13.8374 35.3843
1 15.6563 10.0971 216.894
1 14.8466 7.41018 214.046
1 14.338 12.2765 212.433
1 13.523 9.55092 212.364
1 15.7426 10.244 213.953
1 15.987 10.1926 211.105
1 13.8493 17.017 211.179
1 34.7292 19.9474 23.9835
1 8.5925 20.4339 25.2343
1 8.39972 20.4646 22.4698
1 16.9092 12.8592 211.109
1 6.96044 22.428 21.2083
1 9.42264 23.0246 22.6931
1 9.34369 23.0335 19.7502
1 17.8339 15.7887 210.722
1 18.8195 15.5079 207.471
1 26.8283 17.2177 38.0031
1 13.1167 21.9091 207.549
1 16.939 20.1467 209.617
1 17.8705 22.4578 69.8692
1 18.7558 18.229 208.317
1 16.8244 18.804 206.595
1 10.9132 22.2125 203.261
1 14.3997 19.2307 204.987
1 18.3628 20.4318 205.238
1 13.8139 21.348 202.036
1 10.5038 24.6405 200.677
1 12.7898 24.0364 202.248
1 14.6254 26.1997 201.152
1 12.4998 26.2775 216.845
1 13.7228 4.59273 216.756
1 12.5254 26.3878 219.785
1 12.4287 6.71839 212.676
1 11.3286 3.86287 215.212
1 13.7764 4.67973 213.864
1 13.7241 4.74325 210.958
1 8.61801 17.184 70.1476
1 13.2423 9.7813 209.027
1 12.3581 6.69804 209.251
1 11.0453 21.3735 79.4496
1 14.4665 7.47062 210.951
1 14.7296 7.6501 208.164
1 14.4858 19.5178 207.876
1 11.4142 9.99937 206.556
1 14.6443 12.1059 209.684
1 16.7464 8.60807 206.395
1 15.3075 16.4745 205.042
1 16.6957 13.5689 205.487
1 18.9902 19.7243 69.4693
1 10.3578 11.9417 70.3555
1 11.7126 9.50373 67.6833
1 11.0641 16.5608 69.2074
1 11.4568 8.93185 70.3049
1 12.4417 6.57655 73.3386
1 11.1608 4.74991 71.9093
1 8.99209 9.86646 71.7109
1 13.5224 20.7965 78.069
1 13.3492 3.96638 73.3526
1 16.4789 16.141 207.493
1 11.0434 21.2773 82.4102
1 17.9578 15.7834 204.318
1 16.3149 20.8164 200.782
1 14.7625 18.8345 202.098
1 17.0483 18.4321 203.745
1 18.9298 20.2196 199.488
1 14.2466 21.2487 196.426
1 33.2602 5.45279 111.805
1 13.0313 4.00635 76.2032
1 33.7113 17.1451 23.948
1 10.8569 4.49318 74.7246
1 6.48309 14.9922 25.1884
1 6.36191 15.1818 22.3151
1 6.02984 19.7724 21.0789
1 33.6708 17.1758 21.103
1 7.31032 17.8644 22.6361
1 7.39501 17.5152 19.6993
1 13.3523 20.9039 83.603
1 7.03289 22.5129 18.4102
1 6.68197 5.05604 113.274
1 13.0972 20.7566 86.7273
1 6.99876 5.10975 110.458
1 14.085 21.4916 199.167
1 33.4509 5.44566 108.83
1 34.5271 7.69797 110.366
1 13.0535 24.0538 199.51
1 15.168 18.8008 196.297
1 9.46225 22.6454 193.475
1 34.607 19.8171 18.177
1 8.13693 20.4576 19.6077
1 8.23449 20.5227 16.669
1 11.8941 21.7091 194.969
1 7.07042 22.461 15.1644
1 9.29251 23.113 16.954
1 9.30526 23.3053 13.9443
1 10.8724 24.7904 191.979
1 6.41027 11.6669 156.397
1 13.1103 20.3583 89.3552
1 6.13076 12.0596 159.113
1 9.95919 3.19734 210.403
1 11.4165 18.7359 90.7104
1 33.6141 9.76561 157.593
1 12.8972 26.2857 213.93
1 13.9171 4.8793 207.292
1 12.3798 7.27248 206.678
1 9.96741 24.9885 203.201
1 12.1949 3.35292 208.635
1 5.99085 7.62488 107.441
1 15.724 3.9425 205.377
1 14.0358 9.25618 205.374
1 12.4144 7.33953 203.928
1 15.0033 6.58871 205.375
1 16.3679 8.64536 203.781
1 15.7716 16.1061 202.232
1 13.0376 12.1866 202.34
1 15.2526 11.4618 203.764
1 14.5353 13.9784 200.936
1 11.163 18.6918 93.6139
1 14.9182 18.8318 199.342
1 15.8915 16.0197 199.487
1 11.1066 18.77 96.6525
1 17.3062 18.1129 200.957
1 13.6093 16.7601 197.713
1 11.0567 17.1518 196.294
1 10.8521 12.2223 194.923
1 12.0842 14.5097 196.35
1 13.7903 16.5603 194.963
1 11.6877 22.0012 197.715
1 9.92208 15.2055 194.824
1 12.6655 19.2396 194.974
1 11.2473 17.2652 193.588
1 9.00174 17.8076 191.836
1 9.41556 22.671 190.846
1 10.2376 19.9527 190.64
1 7.14273 9.29503 158.887
1 7.04907 9.22509 161.861
1 13.3198 4.51741 204.15
1 10.9064 18.477 99.3631
1 34.4481 6.97336 160.597
1 14.0269 26.2865 204.13
1 10.5381 18.7643 102.058
1 15.8573 3.94589 202.708
1 13.9748 9.14288 202.233
1 13.599 4.5315 201.188
1 12.6541 7.09784 201.025
1 15.1698 6.4585 199.675
1 13.1456 11.9553 199.459
1 14.0844 9.30799 199.594
1 15.4995 11.3587 201.002
1 33.8156 16.9292 18.1712
1 15.8127 11.3604 198.197
1 6.37374 15.0514 19.597
1 6.38944 14.8823 16.7593
1 34.5567 19.927 15.2948
1 33.8257 17.0687 15.2444
1 7.16445 17.8125 16.7656
1 7.4716 17.7755 13.9887
1 10.6746 18.6322 104.909
1 7.06034 22.2983 12.4891
1 10.7873 12.4964 197.792
1 10.3376 18.534 107.863
1 11.584 9.7515 198.018
1 14.5304 14.0806 197.99
1 13.3364 11.7695 196.644
1 8.60902 12.9928 193.352
1 9.23884 10.4839 199.456
1 14.7151 13.8201 195.217
1 13.3774 11.7171 193.849
1 34.7082 19.6735 12.4516
1 8.3494 20.1937 13.8686
1 8.24345 20.2883 11.0289
1 10.0562 15.2224 191.943
1 7.07217 22.4633 9.70036
1 9.25719 23.0027 11.1413
1 9.38133 23.0807 8.29186
1 11.0281 12.4581 192.178
1 12.4229 14.4535 193.533
1 10.4395 18.4648 110.757
1 12.5795 14.624 190.864
1 9.20041 17.8057 188.993
1 10.4281 18.4942 113.545
1 10.1779 15.0413 189.208
1 11.4825 17.389 190.766
1 33.249 5.51767 105.953
1 7.05904 4.95016 107.59
1 11.6337 17.3058 187.897
1 9.45414 17.8904 186.189
1 10.5917 19.9996 187.795
1 10.6242 19.7692 184.887
1 33.4806 9.8469 160.399
1 7.87024 6.23466 162.022
1 7.87778 6.15441 164.909
1 10.9563 5.09805 202.458
1 6.6403 4.1463 163.307
1 16.0484 3.8059 199.743
1 12.2024 2.34164 199.715
1 12.6601 7.22529 198.303
1 10.0276 18.5901 116.437
1 8.27525 25.3944 199.353
1 13.4659 4.33924 198.23
1 9.90334 18.6807 119.205
1 15.0685 6.29224 196.855
1 12.8537 6.9153 195.35
1 13.8071 4.21649 195.306
1 14.2815 9.09886 196.756
1 14.3482 9.03395 194.003
1 12.0287 9.74211 192.323
1 7.12993 5.12515 104.717
1 12.9706 6.98728 192.43
1 15.2184 22.8913 76.4876
1 11.9565 14.274 71.947
1 14.9587 18.1474 72.0745
1 11.9674 9.66298 195.227
1 11.4268 9.20717 73.1085
1 11.133 9.07932 76.2142
1 9.86662 7.0381 74.6073
1 10.3511 11.8882 73.1581
1 9.69444 18.5983 121.983
1 12.2331 6.51948 76.2323
1 14.5796 9.24112 191.078
1 9.81913 18.8561 124.995
1 33.4037 5.44309 103.177
1 34.6626 7.51032 104.68
1 6.1175 7.70743 102.058
1 11.2308 12.512 189.385
1 12.2103 9.85565 189.545
1 13.5416 11.7681 191.022
1 13.7822 12.0028 188.187
1 12.0773 6.48042 79.119
1 33.835 16.9494 12.4672
1 10.6438 4.37966 77.4133
1 6.48009 14.9765 13.9783
1 6.52577 14.9684 10.9483
1 5.96882 19.6408 9.5441
1 33.8022 16.9212 9.54217
1 7.17943 17.5838 10.9517
1 7.12539 17.6836 7.9316
1 9.43339 18.7048 127.83
1 6.91316 22.6045 6.59154
1 10.3046 15.021 186.341
1 9.18996 18.5681 130.729
1 11.3606 12.3356 186.529
1 12.6411 14.677 187.89
1 12.7321 14.5457 185.005
1 9.40671 17.7187 183.237
1 10.4051 15.0215 183.472
1 11.8789 17.1175 184.865
1 11.9713 17.2424 182.205
1 34.5265 19.6882 6.63182
1 8.27507 20.4325 7.99564
1 8.32376 20.4512 5.22012
1 9.41048 17.9516 180.37
1 6.99887 22.6084 3.78726
1 9.19878 23.1432 5.38007
1 9.21464 23.2222 2.53499
1 10.9567 20.0513 182.035
1 10.9251 20.059 179.132
1 8.98712 18.6999 133.62
1 34.3781 6.753 163.429
1 8.82761 3.6776 165.046
1 9.01146 18.607 136.3
1 8.78727 3.65077 167.887
1 13.3401 24.0411 193.552
1 6.35027 4.26748 166.217
1 12.4291 26.6326 196.682
1 16.2847 3.84474 193.819
1 13.9069 4.24763 192.38
1 14.8986 26.0925 192.212
1 15.2792 6.29976 193.751
1 16.5283 3.70619 191.091
1 13.0765 7.07979 189.639
1 14.0276 4.31274 189.486
1 15.474 6.41211 191.118
1 15.6037 6.55855 188.466
1 12.3396 9.90182 186.737
1 13.2636 7.21577 186.756
1 14.7583 9.26673 188.228
1 9.0129 18.5905 138.959
1 14.9034 9.22751 185.26
1 11.4684 12.3066 183.799
1 8.7541 18.6831 141.96
1 12.6597 9.60972 183.599
1 13.9438 11.8437 185.301
1 13.8641 11.9144 182.381
1 10.5448 15.0905 180.59
1 11.6542 12.4437 180.806
1 12.9405 14.6928 182.164
1 13.3292 14.6546 179.383
1 9.73842 7.01496 77.3922
1 12.8969 3.75427 79.1651
1 12.8639 3.69723 81.8604
1 10.5329 4.6125 80.4304
1 9.53039 17.8968 177.656
1 10.5919 15.3964 177.932
1 11.9885 17.5299 179.339
1 11.9067 17.422 176.425
1 9.64319 18.1925 174.828
1 8.57749 18.5807 144.659
1 11.249 20.1073 176.442
1 11.0306 20.2362 173.489
1 8.64254 18.8467 147.772
1 14.9175 25.9657 189.548
1 17.4974 25.566 190.835
1 17.6647 25.7046 188.039
1 14.1253 4.60189 186.475
1 15.0918 26.2404 186.437
1 16.4858 3.80771 188.332
1 16.5515 3.92634 185.315
1 13.4205 7.04133 183.913
1 33.6504 16.9675 6.64297
1 14.2781 4.40787 183.665
1 6.46811 14.7306 8.11683
1 6.31765 14.868 5.18955
1 34.6528 20.0539 3.85214
1 33.7117 16.7787 3.98445
1 7.27994 17.7569 5.13764
1 7.04148 17.8283 2.27065
1 8.43032 18.4054 150.488
1 6.99654 22.4866 0.799688
1 15.8426 6.76766 185.556
1 8.27004 18.5799 153.402
1 33.6693 5.63553 100.358
1 7.26648 4.99713 101.86
1 7.331 5.14554 98.8435
1 15.9756 6.40327 182.463
1 33.6727 5.77549 97.4722
1 6.23695 7.68674 98.9999
1 6.40405 7.9288 96.0464
1 34.5132 19.8243 0.737483
1 8.21369 20.5336 2.20345
1 8.2448 20.3809 -0.515933
1 12.5235 9.72942 180.716
1 7.00333 22.4996 -1.92749
1 9.28219 23.1048 -0.271483
1 9.2595 23.0769 -3.31214
1 13.6756 7.13539 180.841
1 14.8867 9.1686 182.278
1 8.14534 18.7138 156.158
1 15.0986 9.17469 179.463
1 11.7634 12.6868 177.955
1 7.92731 18.7511 159.209
1 12.7777 9.8274 177.957
1 14.2708 12.0585 179.392
1 14.1934 11.9406 176.454
1 10.8125 15.2928 175.044
1 11.649 12.5695 175.257
1 13.1769 14.8123 176.528
1 13.2394 14.5985 173.852
1 9.68188 18.1846 172.026
1 10.8878 15.5577 172.131
1 12.2672 17.4445 173.49
1 12.1812 17.5668 170.795
1 10.0201 18.2913 169.124
1 11.2395 20.1152 170.717
1 11.4625 20.1055 167.753
1 15.2162 26.1356 183.74
1 17.726 25.4021 185.16
1 8.13766 18.5403 162.018
1 17.9219 25.5178 182.416
1 14.6001 4.27849 180.979
1 7.83288 18.6964 164.679
1 15.4216 26.0601 180.991
1 16.8576 3.82195 182.617
1 16.8436 3.69786 179.571
1 13.6832 6.99283 177.88
1 14.4221 4.36702 178.012
1 16.1063 6.41143 179.534
1 16.1823 6.49764 176.575
1 12.8144 9.87538 175.069
1 13.8166 7.1416 175.18
1 15.145 9.27432 176.704
1 15.2148 9.21283 173.769
1 11.8741 12.8037 172.185
1 10.6721 11.8108 76.111
1 10.3326 12.0985 79.0431
1 8.79637 9.76458 77.6394
1 12.7461 10.0029 172.264
1 7.84817 18.7947 167.642
1 11.0674 9.22058 79.0131
1 14.0045 11.9985 173.697
1 7.54547 18.9777 170.539
1 14.2344 11.9492 170.911
1 11.0668 15.4197 169.382
1 12.1917 12.645 169.21
1 13.3466 14.7842 170.803
1 13.5163 14.7001 168.013
1 10.2208 17.9585 166.311
1 11.316 15.3063 166.534
1 10.948 9.40666 82.0771
1 33.7649 16.8952 0.965422
1 9.51375 7.0302 80.3795
1 6.40195 14.8646 2.317
1 6.31475 14.9136 -0.617333
1 6.05314 19.755 -2.17697
1 33.5601 16.9594 -1.82313
1 7.24241 17.5336 -0.805855
1 7.31538 17.6976 -3.70157
1 7.25612 18.8679 173.296
1 6.95428 22.4306 -4.9977
1 12.5461 17.5773 167.865
1 7.10669 18.5439 176.184
1 12.6475 17.4475 165.157
1 10.3684 18.1183 163.496
1 11.7009 20.0845 164.936
1 12.0417 20.132 162.095
1 15.4129 26.0846 178.017
1 17.8752 25.4109 179.52
1 18.0774 25.5772 176.828
1 34.7583 19.858 -4.89831
1 8.23829 20.4894 -3.40952
1 8.41418 20.399 -6.46168
1 14.6181 4.40241 175.229
1 7.1023 22.2992 -7.65828
1 9.37478 23.1297 -6.32478
1 9.5009 23.0837 -9.29982
1 15.4677 26.0121 175.289
1 17.091 3.89864 176.85
1 8.65223 20.4019 177.878
1 17.1616 3.82226 173.885
1 13.8924 7.29296 172.211
1 6.97824 18.584 178.969
1 14.9302 4.47307 172.281
1 16.1696 6.56625 173.771
1 16.3659 6.469 170.946
1 12.9421 9.78769 169.413
1 33.786 5.76657 94.7389
1 7.44898 5.3728 96.1846
1 7.56058 5.26091 93.4355
1 14.0938 7.13644 169.281
1 15.5647 9.35548 170.959
1 15.5605 9.12731 168.009
1 12.2551 12.7528 166.447
1 13.1178 9.89049 166.651
1 14.4174 11.921 167.932
1 14.6737 12.1019 165.11
1 11.4109 15.2469 163.642
1 12.0625 12.5744 163.642
1 7.17447 18.4598 182.131
1 13.605 14.7719 165.078
1 13.8339 14.5941 162.204
1 6.97579 18.4088 184.885
1 10.4789 18.2118 160.558
1 11.5537 15.2239 160.847
1 12.6106 17.4442 162.213
1 12.7882 17.4504 159.469
1 10.4753 18.164 157.609
1 12.0469 20.155 159.364
1 11.9657 20.2408 156.54
1 8.52926 9.80201 80.4732
1 11.8731 6.63755 82.0351
1 11.775 6.46558 84.8473
1 10.3913 4.64571 83.3095
1 9.45855 7.32793 83.3639
1 12.6831 3.70403 84.6212
1 12.5679 3.93803 87.8181
1 10.4784 4.44996 86.0135
1 6.19839 11.7976 161.896
1 6.83269 18.4761 187.596
1 5.95949 11.743 164.905
1 15.8057 26.2346 172.38
1 6.70322 18.6791 190.441
1 33.5001 9.51953 163.224
1 18.1532 25.6586 173.835
1 34.0896 5.72124 91.777
1 6.62851 7.8037 93.3146
1 6.71928 7.87052 90.2797
1 18.4464 25.6971 170.988
1 14.8758 4.38537 169.362
1 15.8702 26.1457 169.467
1 33.7663 16.9827 -4.74667
1 17.4384 3.84486 171.131
1 6.36278 14.8503 -3.39811
1 6.485 14.9599 -6.22342
1 6.11622 19.6335 -7.88762
1 33.8114 16.9672 -7.763
1 7.57957 17.7323 -6.37292
1 7.46648 17.6237 -9.3055
1 6.559 18.4893 193.242
1 7.03578 22.3671 -10.4775
1 17.5149 3.86654 168.235
1 6.28878 18.708 196.125
1 14.0616 7.01973 166.506
1 15.0272 4.36793 166.789
1 16.5188 6.46496 167.988
1 16.6868 6.78105 165.439
1 13.1446 10.0662 163.694
1 14.1159 7.37619 163.83
1 15.4271 9.38755 165.287
1 34.6817 19.784 -10.7746
1 8.3691 20.3857 -9.42637
1 8.33327 20.3989 241.25
1 15.6669 9.40181 162.399
1 6.92347 22.1859 239.959
1 9.4989 23.0901 241.218
1 9.26413 22.9498 238.326
1 12.4614 12.4988 160.775
1 13.333 9.87404 160.836
1 6.27945 18.6651 199.11
1 14.777 12.0756 162.377
1 14.7636 11.9407 159.391
1 33.0616 16.277 206.058
1 11.5442 15.5312 157.717
1 12.4523 12.5666 157.854
1 13.8106 14.5843 159.329
1 13.91 14.8151 156.43
1 10.718 18.4329 154.709
1 11.7809 15.3174 154.983
1 12.9105 17.5985 156.503
1 13.301 17.6397 153.641
1 10.8729 18.1445 152.116
1 12.299 20.3658 153.656
1 12.1197 20.1701 150.838
1 6.83825 8.86703 164.712
1 6.82523 9.06716 167.573
1 16.1403 26.2764 166.663
1 34.0816 6.95573 166.377
1 18.5752 25.7027 168.274
1 8.27107 6.73693 206.742
1 18.6028 25.6572 165.312
1 15.2008 4.59712 163.923
1 30.072 3.0418 204.338
1 16.2138 26.3664 163.732
1 17.6069 4.00258 165.379
1 17.7332 3.95111 162.516
1 14.3759 7.13747 160.854
1 15.3968 4.4918 161.126
1 16.6126 6.68887 162.574
1 16.7749 6.43362 159.459
1 13.6519 9.88703 157.986
1 14.4969 7.16706 158.103
1 16.0081 9.09496 159.55
1 15.9677 9.2827 156.507
1 12.6207 12.6024 155.039
1 10.1622 12.0065 81.8439
1 9.7896 11.841 84.8298
1 33.5503 16.7967 -10.6183
1 8.42698 9.86546 83.386
1 9.83898 5.78209 213.599
1 6.41112 14.897 -9.30659
1 13.8021 9.84785 155.24
1 34.3886 5.73363 210.39
1 15.0818 12.0002 156.57
1 15.3393 12.0118 153.822
1 11.8834 15.2893 152.106
1 13.0507 12.6006 152.183
1 14.1909 14.817 153.737
1 14.5117 14.6079 150.958
1 10.9601 18.2695 149.252
1 6.28455 14.9931 241.207
1 6.05099 19.3749 239.791
1 33.8104 17.1246 239.788
1 7.37494 17.4412 241.382
1 7.39777 17.4782 238.381
1 6.95326 22.1821 236.837
1 6.01865 19.5296 236.919
1 8.37567 20.261 238.482
1 8.47038 20.3282 235.639
1 9.79318 6.03192 216.35
1 12.0409 15.3675 149.358
1 13.2032 17.4769 150.729
1 9.51598 6.17389 218.98
1 13.3578 17.6116 147.832
1 10.952 18.313 146.391
1 34.3407 5.38766 88.988
1 7.88458 5.19077 90.5015
1 7.84629 5.23235 87.581
1 12.5405 20.3117 147.922
1 34.3517 5.66868 86.007
1 6.94533 22.3548 234.242
1 9.37419 23.1871 235.437
1 9.08848 23.0887 232.683
1 12.7587 20.1608 144.952
1 33.2559 9.65365 166.284
1 11.0373 9.18271 84.8454
1 10.8129 9.54484 87.5999
1 9.52455 7.20097 86.2119
1 8.28179 9.91527 86.3585
1 9.44134 6.20472 221.668
1 11.6492 6.43441 87.7081
1 6.83185 7.72831 87.597
1 9.58664 6.55586 224.284
1 7.00144 7.57286 84.5326
1 7.75732 6.36486 167.855
1 7.69768 6.38994 170.812
1 16.3065 26.1815 160.92
1 6.56231 4.25653 169.193
1 18.7213 25.6216 162.474
1 11.5088 6.50059 90.7225
1 10.1297 4.54838 88.9131
1 9.45441 7.20159 88.9527
1 12.4399 3.89582 90.4841
1 12.3683 3.89544 93.2965
1 33.6221 16.8284 236.862
1 9.98163 4.56134 91.9897
1 6.37958 14.7925 238.352
1 6.54181 14.921 235.639
1 9.34636 6.55451 227.011
1 6.22091 19.6174 234.106
1 18.7317 25.6048 159.707
1 9.59329 6.51577 230.047
1 15.3627 4.27684 158.263
1 16.4291 26.1004 158.042
1 33.9573 17.0361 234.139
1 7.49628 17.4841 235.611
1 7.46929 17.6826 232.457
1 8.38469 20.5726 232.618
1 17.8031 3.79739 159.518
1 18.0729 4.06797 156.894
1 14.7221 7.20663 155.054
1 15.5058 4.49022 155.401
1 16.8954 6.65185 156.794
1 9.45752 6.3435 232.725
1 17.4024 6.44523 153.946
1 13.8927 9.76596 152.464
1 14.8122 7.09253 152.328
1 16.2988 9.35424 153.739
1 16.4701 9.15152 151.11
1 13.0264 12.6607 149.404
1 6.41339 14.8934 232.617
1 14.0567 10.008 149.534
1 15.383 11.7967 150.965
1 9.76386 12.1125 87.6222
1 9.5897 11.6962 90.5316
1 15.4631 12.1966 148.135
1 12.0214 15.532 146.575
1 13.2497 12.6078 146.646
1 14.4988 14.8446 148.116
1 14.5655 14.7299 145.363
1 10.9769 18.081 143.525
1 12.1056 15.3384 143.589
1 13.3816 17.4782 145.075
1 13.5709 17.6664 142.208
1 11.2415 18.1676 140.59
1 12.7288 20.2272 142.27
1 12.9147 20.1362 139.539
1 34.1229 6.90968 169.06
1 8.78072 3.86618 170.716
1 8.59774 3.57867 173.399
1 16.6538 26.2929 155.208
1 6.65871 10.5089 232.674
1 34.3576 7.73379 232.903
1 34.3448 7.97463 235.654
1 31.9191 7.29582 234.217
1 32.7681 9.92049 234.343
1 6.21758 4.316 172.067
1 18.8957 25.3901 156.989
1 19.1113 25.4746 154.058
1 31.9322 7.44893 237.037
1 15.8874 4.38923 152.618
1 16.6157 26.1117 152.369
1 18.1886 3.72422 153.829
1 18.3247 3.83523 151.065
1 14.978 7.15766 149.632
1 15.9418 4.37791 149.568
1 17.2908 6.52187 151.212
1 17.2811 6.62734 148.249
1 14.2042 9.93308 146.631
1 15.0194 7.12333 146.577
1 34.5017 5.68446 83.0787
1 16.5223 9.41583 148.212
1 16.4991 9.08712 145.471
1 13.2549 12.7004 143.82
1 33.8263 12.7084 234.336
1 14.2977 9.89044 143.779
1 6.40177 10.6573 235.447
1 6.58725 10.7375 238.436
1 32.961 10.0329 237.251
1 33.7637 12.7257 237.158
1 34.2413 8.05363 238.596
1 34.2887 7.96858 241.319
1 31.733 7.24681 239.819
1 33.0109 9.96361 239.824
1 8.16175 5.09308 84.8511
1 8.02716 5.3402 81.7797
1 15.6143 11.9327 145.333
1 31.9234 7.40622 -10.7375
1 34.5532 5.49812 80.4123
1 7.20761 7.86165 81.7448
1 15.672 12.1066 142.405
1 12.444 15.3583 140.905
1 13.4219 12.5214 140.826
1 14.6333 14.6261 142.437
1 14.8313 14.4425 139.668
1 11.6238 18.0431 137.792
1 12.4709 15.333 137.921
1 13.7661 17.3083 139.405
1 13.795 17.3346 136.447
1 11.6236 18.3035 134.974
1 11.7044 23.5306 231.135
1 14.0167 24.1819 229.891
1 13.1959 20.1051 136.745
1 13.1072 20.1575 133.848
1 16.8742 26.1473 149.656
1 19.3873 25.6132 151.377
1 19.5164 25.5923 148.444
1 16.0541 4.33408 146.715
1 17.1498 25.9944 146.733
1 18.4584 3.90115 148.313
1 33.8378 12.7074 239.99
1 18.4816 3.60327 145.237
1 6.65025 10.5391 241.264
1 6.42017 10.7424 -9.18039
1 32.9415 9.85256 -10.6278
1 33.8282 12.7754 -10.6541
1 34.2853 8.12448 -9.18651
1 34.2214 7.9663 -6.35247
1 31.9629 7.367 -7.87247
1 32.8849 9.98662 -7.86257
1 15.3562 7.11797 143.784
1 7.21139 7.68636 78.9862
1 16.2159 4.21044 143.685
1 32.0306 7.29572 -4.82618
1 17.3436 6.35541 145.34
1 17.8431 6.56334 142.441
1 14.4223 9.77974 140.768
1 15.3085 7.05385 140.861
1 16.728 9.14318 142.508
1 16.7422 9.10772 139.426
1 13.3532 12.3746 138.009
1 14.4541 9.77765 137.974
1 16.0403 11.8331 139.485
1 16.0031 11.8397 136.618
1 12.6925 15.1992 134.964
1 10.8369 21.0447 231.41
1 9.86367 18.4355 231.073
1 12.3972 18.743 229.818
1 11.8222 23.4413 228.36
1 10.7586 20.8969 228.43
1 13.2127 21.5008 229.963
1 13.2834 21.5779 226.832
1 13.4658 12.3675 135.217
1 11.6071 23.7353 225.463
1 14.3514 24.2806 227.119
1 14.163 24.2909 224.108
1 14.9241 14.5524 136.584
1 15.0568 14.5804 133.649
1 11.7504 18.1252 132.178
1 12.7225 15.4635 132.278
1 33.8968 12.858 -7.83063
1 13.9529 17.6698 133.674
1 6.57632 10.595 -6.40108
1 6.39051 10.8284 -3.36866
1 32.9722 10.0038 -4.85143
1 33.8448 12.872 -4.90656
1 34.1615 8.28701 -3.08887
1 34.1934 8.19385 -0.410445
1 31.7826 7.41538 -1.93598
1 32.5892 10.1574 -1.96731
1 14.191 17.5315 130.898
1 11.8109 18.3352 129.415
1 13.2796 20.1867 130.694
1 31.8584 7.51656 0.94964
1 13.53 20.0058 127.78
1 17.1807 26.037 143.866
1 19.6195 25.4506 145.544
1 19.8471 25.4483 142.679
1 16.2602 4.3605 140.879
1 17.0784 26.2681 141.237
1 18.7637 3.8855 142.637
1 18.8603 3.78343 139.727
1 15.5047 7.04609 138.081
1 16.3088 4.24142 138.189
1 17.8109 6.44546 139.659
1 18.1109 6.52616 136.681
1 14.813 9.85111 135.183
1 15.6926 7.06957 135.299
1 17.1005 9.13607 136.76
1 8.71946 15.5332 231.111
1 7.98501 12.8105 231.367
1 10.3429 13.4437 229.858
1 9.97643 18.2246 228.29
1 8.95236 15.3381 228.364
1 11.2748 16.1671 229.677
1 11.4287 16.0297 226.958
1 10.7705 20.9347 225.5
1 10.0069 18.2288 225.474
1 12.2448 19.0007 226.96
1 12.2615 18.7855 224.01
1 33.6274 12.9045 -1.9121
1 11.6308 23.8543 222.592
1 6.43817 11.0095 -0.466625
1 6.35511 10.5127 2.38561
1 32.7882 10.0931 0.932291
1 33.6244 12.8895 1.02746
1 34.0437 7.9739 2.35212
1 34.2764 7.75927 5.47078
1 31.7343 7.27531 3.8518
1 32.6777 9.85967 3.98905
1 16.9851 9.18153 133.81
1 34.6991 5.60924 77.5607
1 8.24134 5.16421 78.9982
1 31.955 7.47632 6.84678
1 13.6086 12.6559 132.415
1 14.7902 9.97479 132.352
1 16.1495 11.9809 133.926
1 16.1377 12.0914 131.076
1 12.9013 15.3021 129.332
1 13.8921 12.671 129.494
1 15.231 14.7625 130.881
1 15.5557 14.7407 127.94
1 11.9118 18.1011 126.438
1 12.9794 15.2887 126.567
1 8.41016 5.18769 75.8915
1 10.7064 20.9097 222.632
1 13.2393 21.7145 224.019
1 13.1631 21.7734 221.313
1 14.1701 17.3282 127.994
1 11.7082 23.7532 219.854
1 14.104 24.5031 221.157
1 14.2661 24.3645 218.34
1 14.4305 17.4315 125.331
1 12.0767 18.235 123.577
1 13.6615 20.2439 125.106
1 13.6903 20.3432 122.194
1 17.2324 26.1144 138.297
1 19.627 25.6081 139.964
1 19.8309 25.7217 136.851
1 16.6535 4.35054 135.395
1 33.8023 12.7259 3.71198
1 17.6603 26.1776 135.314
1 6.3435 10.6403 5.17376
1 6.48958 10.5551 8.08484
1 33.0132 9.98465 6.71443
1 33.8991 12.8807 6.66948
1 34.2816 7.99901 8.14894
1 34.2078 7.97838 11.2315
1 31.9739 7.3292 9.57036
1 32.8927 9.98202 9.55716
1 18.9461 3.8611 136.834
1 7.44532 7.7375 76.1207
1 9.02177 9.84103 74.7111
1 31.8983 7.30364 12.5555
1 7.5742 7.8849 73.1362
1 19.0685 3.99458 133.898
1 15.8174 6.99105 132.547
1 16.5727 4.4352 132.476
1 18.3069 6.66849 133.866
1 18.2364 6.56098 131.141
1 14.8791 9.78209 129.547
1 15.8983 7.15439 129.647
1 17.2102 9.31598 131.087
1 17.2893 9.38023 128.454
1 13.8601 12.6139 126.681
1 8.42177 9.80034 89.2059
1 15.0769 9.91361 126.808
1 10.7993 9.24124 90.6035
1 7.83976 12.8006 228.386
1 10.5885 9.29855 93.5475
1 9.3097 10.7539 229.921
1 9.46173 10.7434 227.067
1 8.83533 15.3757 225.419
1 7.92373 12.6822 225.67
1 10.4808 13.3538 227.178
1 10.4295 13.3013 224.2
1 9.95769 18.0848 222.53
1 8.98534 15.3402 222.443
1 11.2114 16.0659 224.13
1 11.4196 16.2767 220.995
1 33.8972 12.9063 9.53238
1 10.9292 21.0806 219.816
1 6.41762 10.7752 10.9747
1 6.52108 10.5432 13.77
1 32.7365 10.1064 12.3337
1 33.9372 12.8664 12.4022
1 34.322 8.00175 13.912
1 34.2918 8.08374 16.713
1 31.9028 7.29119 15.3311
1 32.7729 9.9477 15.0994
1 16.1775 12.0366 128.2
1 16.5608 12.0626 125.194
1 13.1391 15.2799 123.734
1 31.9426 7.41372 18.0549
1 14.0187 12.596 123.653
1 15.445 14.6893 125.201
1 15.6488 14.7628 122.36
1 12.1114 18.1895 120.812
1 13.31 15.3068 120.833
1 14.4937 17.4138 122.194
1 14.725 17.4167 119.425
1 12.6065 18.062 118.166
1 13.8724 20.0458 119.409
1 14.0006 20.2237 116.566
1 34.6769 11.9356 167.605
1 9.99097 18.2317 219.541
1 12.2907 18.907 221.3
1 12.3622 19.1146 218.364
1 11.8337 23.6567 217.14
1 11.0116 21.1372 216.727
1 13.3777 21.657 218.43
1 13.4184 21.6817 215.525
1 6.97275 13.8634 171.946
1 11.7671 23.599 214.207
1 14.072 24.4263 215.358
1 13.3644 21.6604 212.96
1 17.6611 26.3161 132.364
1 34.397 11.7555 170.469
1 20.0871 25.6189 133.883
1 20.1836 25.631 130.985
1 33.7219 12.6773 15.1505
1 16.6598 4.40868 129.56
1 6.39633 10.7346 16.6277
1 6.51863 10.6972 19.5575
1 32.7826 10.1196 17.9388
1 33.8186 12.6671 18.1542
1 34.0908 8.22802 19.4517
1 32.9624 10.1818 24.0038
1 31.9108 7.64919 20.8477
1 32.9873 10.3315 21.0914
1 17.7153 26.3001 129.541
1 19.3882 3.91368 131.193
1 19.4847 3.91282 128.384
1 30.8155 9.47997 25.3781
1 16.0412 7.06547 126.81
1 17.0711 4.42267 126.914
1 18.258 6.46001 128.296
1 18.5482 6.43163 125.491
1 15.1127 9.7782 123.815
1 16.3086 7.12775 123.887
1 17.5853 9.1935 125.308
1 17.5729 9.45206 122.499
1 14.2709 12.7083 120.742
1 15.3552 9.85339 120.79
1 6.19676 5.80371 74.4503
1 16.4877 12.111 122.518
1 16.9008 11.9355 119.562
1 13.5931 15.3188 117.743
1 14.5981 12.5734 118.017
1 9.07782 7.04259 91.9655
1 8.11539 9.80204 92.0894
1 11.4298 6.47541 93.6467
1 11.2863 6.54411 96.4075
1 10.0631 4.53639 94.8934
1 8.97515 7.15024 94.8256
1 12.2112 3.76089 96.2417
1 8.24821 12.6164 222.712
1 12.2086 3.84626 99.2117
1 9.46723 10.3882 224.162
1 9.44701 10.5834 221.235
1 33.9577 12.8157 20.9901
1 8.94286 15.5043 219.469
1 33.9088 12.8732 23.8402
1 33.885 12.882 26.7705
1 31.5248 12.2323 25.1997
1 32.438 15.0369 25.3767
1 32.995 10.3013 26.9056
1 32.9096 10.4672 29.7692
1 30.5075 9.68397 28.3052
1 31.5229 12.2961 28.2081
1 8.58457 5.22775 73.0641
1 7.55368 7.83229 69.9551
1 16.0019 14.7532 119.423
1 30.3562 9.82343 31.0369
1 6.3784 6.066 71.4628
1 6.52492 10.3851 70.2211
1 15.9913 15.53 69.2697
1 16.1282 14.654 116.581
1 12.5827 18.1812 115.367
1 13.6905 15.4212 114.893
1 15.0042 17.4926 116.57
1 15.1868 17.6049 113.735
1 12.9195 17.9814 112.526
1 14.0758 20.2453 113.823
1 14.294 19.9932 110.922
1 8.21417 12.5951 219.767
1 10.5599 13.5007 221.124
1 10.4319 13.4864 218.344
1 9.99123 18.3318 216.569
1 9.06194 15.5857 216.782
1 11.3087 16.2985 218.171
1 11.3894 16.1383 215.351
1 10.8202 21.0912 213.858
1 9.84143 18.3494 213.835
1 12.3094 18.91 215.426
1 13.8338 16.8131 214.016
1 10.8329 20.9658 211.184
1 12.4236 19.0737 212.528
1 14.6997 19.608 214.127
1 12.3507 19.2477 209.446
1 32.3639 15.0483 28.0958
1 6.5759 9.14196 170.648
1 33.9911 13.061 29.5481
1 32.7004 14.8683 33.7958
1 31.5373 12.45 31.0843
1 32.5802 19.2105 31.1001
1 29.4326 11.2802 34.9388
1 26.1657 14.4788 38.0314
1 21.9492 9.56079 36.713
1 24.3492 17.8879 37.0792