8000
 Atoms. Timestep: 200000
1 16.9529 24.9206 230.188
1 16.0652 22.2477 230.255
1 18.4948 22.8185 228.924
1 17.2208 24.7391 227.124
1 19.4458 25.4602 228.644
1 19.524 25.5851 225.946
1 15.0804 19.4563 230.202
1 8.49288 8.24973 232.902
1 14.1309 16.6362 230.121
1 16.6114 17.5604 228.806
1 16.1675 22.1667 227.225
1 15.2248 19.577 227.426
1 17.5845 20.1601 228.742
1 17.5952 19.9114 225.918
1 17.2771 24.8441 224.387
1 16.1797 15.4185 64.944
1 18.1679 14.8465 63.457
1 8.56417 8.32313 235.881
1 9.06781 19.9737 38.2782
1 16.2004 22.2961 224.465
1 8.5943 8.2205 238.777
1 32.3103 5.58903 118.77
1 33.7301 7.66578 120.249
1 33.684 7.51291 117.398
1 18.6717 22.7341 225.897
1 18.7125 22.7913 223.094
1 17.1921 24.7719 221.55
1 19.5344 25.5334 222.95
1 21.9625 26.1473 221.517
1 23.3159 13.8028 56.1026
1 10.3851 17.9294 39.703
1 32.5019 23.0933 34.3344
1 13.3653 13.9791 230.063
1 12.3511 11.1577 230.262
1 8.6018 8.31299 -6.07387
1 14.6978 11.9117 228.752
1 14.0528 16.8885 227.238
1 8.36433 8.48147 -3.04649
1 13.2606 13.9426 227.216
1 15.5691 14.809 228.723
1 15.687 14.6986 225.928
1 15.2924 19.6331 224.508
1 14.3016 16.8884 224.341
1 16.7362 17.1677 225.866
1 16.8363 17.5676 222.914
1 16.1871 22.1126 221.477
1 15.1809 19.569 221.615
1 17.6852 20.1005 222.864
1 17.5685 20.0104 220
1 16.898 24.7881 218.865
1 16.0286 22.2042 218.737
1 18.6662 22.6715 219.935
1 18.5845 22.848 217.264
1 12.9534 26.1981 222.039
1 8.4436 8.2422 -0.338824
1 15.2142 2.40942 220.339
1 16.9034 24.9258 216.025
1 8.48503 8.35536 2.44098
1 11.4491 8.37978 230.118
1 6.59717 4.42614 159.111
1 12.8124 6.46016 228.851
1 12.5016 11.2912 227.324
1 11.4301 8.42404 227.314
1 13.6715 9.12561 228.906
1 13.7444 9.24649 225.89
1 12.8869 9.92209 65.3756
1 13.7279 14.5971 64.0425
1 11.9004 14.056 67.6336
1 9.57676 13.8355 66.3766
1 17.36 17.5738 66.3502
1 12.966 11.3219 67.6362
1 9.14189 9.10866 67.5333
1 9.78208 7.36722 70.0244
1 13.3018 14.1206 224.334
1 8.4128 8.31528 5.50359
1 12.3823 11.3342 224.465
1 14.8406 11.8578 225.855
1 8.35715 8.20071 8.54233
1 14.7497 11.9968 222.995
1 14.1612 16.9851 221.563
1 13.2281 14.1293 221.467
1 15.7148 14.8293 223.033
1 15.5013 14.7804 220.06
1 15.0194 19.5482 218.673
1 14.2566 16.7944 218.774
1 16.3738 17.5876 220.06
1 12.1233 12.7337 65.0374
1 16.5631 17.4221 217.218
1 14.512 11.7479 63.8229
1 22.4004 12.6665 45.1253
1 6.62558 19.4306 37.2603
1 7.09489 14.544 38.5206
1 13.5135 13.8793 40.2914
1 8.05062 17.4389 35.8682
1 8.38147 8.34472 11.189
1 33.9655 21.3512 35.7262
1 16.1165 22.1747 215.907
1 8.49618 8.35354 14.1428
1 15.0167 19.5691 215.76
1 17.6017 19.9424 217.241
1 18.122 15.314 215.848
1 15.9712 22.3962 213.145
1 17.5206 20.165 214.442
1 19.0174 18.1676 215.803
1 18.8621 18.2272 212.975
1 6.62258 19.285 34.3347
1 7.43396 22.2215 34.2913
1 8.87142 20.1794 32.9295
1 13.3564 21.7989 208.857
1 7.55797 22.2264 31.453
1 9.77188 22.873 32.9488
1 9.67215 22.9611 29.765
1 15.0912 19.3942 210.147
1 15.407 19.7691 207.501
1 8.43042 8.44726 16.9068
1 11.3628 8.6084 224.6
1 12.4888 6.45646 225.901
1 8.3996 8.56234 19.8885
1 12.7563 6.68202 222.844
1 12.214 11.4559 221.485
1 11.3475 8.54965 221.48
1 13.7018 9.23235 223.03
1 13.6363 9.25456 220.248
1 13.0021 14.0178 218.817
1 12.0384 11.2744 218.718
1 14.6192 11.9679 220.051
1 14.6313 12.1119 217.214
1 14.1477 16.6956 215.549
1 13.2472 14.0364 215.809
1 15.6213 14.7786 217.163
1 14.7628 12.0804 214.236
1 16.5269 17.5211 214.414
1 15.7064 14.6946 214.311
1 17.0707 12.6018 215.752
1 8.35463 8.70553 22.6588
1 17.2209 12.6301 212.852
1 16.6269 17.6162 211.355
1 7.15552 10.5093 27.0491
1 15.581 14.6754 211.662
1 17.961 15.5121 213.088
1 32.406 5.61232 115.811
1 34.7366 4.88357 117.491
1 6.06732 4.95408 114.621
1 19.0321 18.0751 209.914
1 32.6273 5.72315 112.965
1 12.8176 22.1754 206.374
1 16.6611 17.3112 208.4
1 17.5946 20.2181 208.87
1 17.7789 21.2027 206.29
1 13.0862 21.7436 203.627
1 15.3684 21.3224 205.009
1 14.9161 23.5867 202.15
1 11.3165 8.52117 218.609
1 12.8596 6.29757 220.165
1 6.89305 10.5026 29.9158
1 23.6073 15.6876 48.1235
1 33.905 7.69203 114.586
1 7.03174 10.5726 32.9506
1 34.1828 7.59911 111.605
1 12.6583 6.53617 217.324
1 12.2681 11.4413 215.727
1 11.2236 8.67088 215.774
1 13.7655 9.26755 217.347
1 15.0891 7.10423 215.979
1 12.3532 11.44 212.993
1 19.0682 19.5071 65.3209
1 7.12194 14.6679 35.7009
1 16.3498 25.0106 70.7959
1 16.5606 10.3199 40.0144
1 7.25565 14.672 32.9014
1 6.52921 19.5344 31.3981
1 34.4211 16.6283 31.3103
1 8.04603 17.4076 32.8226
1 7.96715 17.345 29.9606
1 5.95126 12.4067 36.9119
1 7.50623 22.3722 28.6537
1 13.5758 9.40254 214.459
1 27.615 16.6557 42.2586
1 16.0377 9.98929 215.921
1 15.0351 7.22108 213.123
1 14.7092 11.9817 211.402
1 13.6519 9.41795 211.583
1 16.0564 9.89642 213.047
1 16.1841 9.89617 210.162
1 14.1144 16.7397 210.015
1 6.39363 19.5795 28.5533
1 8.7487 20.1434 30.1382
1 8.88918 20.2627 27.1364
1 17.2113 12.663 210.124
1 7.54672 22.2411 25.5082
1 9.67236 22.9775 26.8459
1 9.63642 22.9235 24.0645
1 18.0023 15.6433 210.361
1 18.3133 15.357 207.362
1 23.4272 15.5554 45.1186
1 13.1852 19.4821 205.856
1 14.3887 16.9721 206.961
1 17.6149 22.5297 68.1586
1 18.6799 18.2657 206.888
1 16.4387 18.5928 205.453
1 10.694 22.393 201.898
1 14.177 19.0561 203.441
1 18.2219 20.5195 203.625
1 13.4408 21.7163 200.755
1 9.99574 24.9047 199.152
1 12.4379 24.306 200.733
1 14.081 26.3948 199.227
1 12.8713 26.3627 213.723
1 13.9759 4.52869 215.967
1 12.7403 26.503 216.388
1 12.5848 6.61598 211.719
1 11.3861 4.02067 212.804
1 13.982 4.60553 213.066
1 13.9354 4.52974 210.424
1 8.42015 17.1949 68.8585
1 13.8457 9.1468 208.841
1 12.6283 6.22785 208.426
1 10.911 21.1374 77.2725
1 15.1588 7.3274 210.396
1 14.9902 7.14661 207.238
1 15.8338 14.6918 206.233
1 13.5155 9.25354 206.141
1 14.5815 11.8494 208.477
1 16.096 8.71908 204.832
1 15.154 16.3208 203.776
1 16.2013 13.6284 203.791
1 18.5738 19.7314 67.9711
1 10.4554 12.1243 68.8892
1 10.6158 11.1262 66.4581
1 10.8712 16.4999 67.8275
1 11.3441 9.3565 68.8821
1 12.1802 6.94006 71.9809
1 10.9823 4.97615 70.6408
1 8.71868 9.92786 70.0335
1 13.2076 20.7886 76.292
1 13.1117 4.0739 72.0876
1 17.7736 16.1983 205.114
1 10.9648 21.2492 80.2269
1 17.7666 15.593 202.476
1 15.9191 20.8964 199.155
1 14.3753 18.9063 200.657
1 16.6878 18.2695 202.468
1 18.53 20.3305 198.114
1 13.5464 21.7269 194.892
1 32.6626 5.50795 110.266
1 13.0495 3.91163 74.8229
1 34.4254 16.7347 28.4845
1 10.5432 4.60562 73.3109
1 6.97131 14.618 29.8056
1 7.0573 14.6757 27.0066
1 6.46738 19.7228 25.7364
1 34.2919 16.7017 25.6033
1 7.91036 17.6392 26.9943
1 7.87281 17.5499 24.1714
1 12.7075 20.8471 82.1518
1 7.48136 22.0298 22.4427
1 6.34398 5.09987 111.707
1 12.8935 20.869 85.2225
1 6.59025 4.9361 108.825
1 13.5305 21.8017 197.809
1 32.9756 5.7507 107.488
1 34.3156 7.58029 108.781
1 12.4784 24.407 197.834
1 14.4905 19.0331 194.973
1 8.54852 23.1458 191.91
1 6.51579 19.588 22.8211
1 8.75448 20.2985 24.2564
1 8.89699 20.1925 21.3002
1 11.2073 22.3951 193.585
1 7.38794 22.0366 19.5088
1 9.63872 23.0089 21.0744
1 9.72595 22.7015 18.1875
1 10.3668 25.0769 190.646
1 6.19765 11.8386 154.546
1 12.5691 20.4993 87.9791
1 34.57 11.6888 157.593
1 12.5763 2.98603 207.801
1 11.1384 18.6561 89.2929
1 33.4894 9.62153 155.923
1 12.5399 26.5712 210.843
1 15.0377 4.14793 206.542
1 11.7022 7.57688 204.795
1 11.4135 2.48276 203.348
1 12.8022 5.02325 205.373
1 34.3863 7.70192 106.079
1 15.3483 3.98691 203.737
1 13.477 9.2563 203.613
1 11.8857 7.12372 202.128
1 14.4097 6.68126 203.993
1 16.1014 8.91277 202.206
1 15.3961 16.3769 201.049
1 12.6959 12.0763 200.709
1 14.8782 11.5379 202.293
1 14.0892 14.192 199.413
1 10.8541 18.8258 92.0225
1 14.4235 18.9604 197.792
1 15.4643 16.0985 198.017
1 10.8934 18.831 94.9117
1 16.8131 18.1692 199.436
1 13.1796 16.9058 196.19
1 10.6422 17.6355 194.771
1 10.3247 12.7638 193.481
1 11.6377 14.7984 194.854
1 13.3195 16.9877 193.426
1 10.9955 22.3607 196.502
1 9.37993 15.4136 193.318
1 12.194 19.5769 193.627
1 10.9768 17.6106 192.01
1 8.61065 18.2114 190.553
1 9.19918 23.0814 189.066
1 10.0062 20.5712 189.247
1 7.00149 9.16379 157.782
1 6.91307 9.03405 160.524
1 12.8385 4.6238 202.387
1 10.7848 18.9183 97.7483
1 34.4407 6.94594 158.977
1 13.8622 26.3049 202.375
1 10.611 18.6905 100.523
1 15.4087 4.02918 200.957
1 13.4188 9.32384 200.874
1 13.161 4.62483 199.345
1 12.261 7.40704 199.25
1 14.7942 6.77181 197.938
1 12.786 12.176 197.848
1 13.8601 9.30609 197.907
1 15.2109 11.3105 199.506
1 34.3907 16.6322 22.5256
1 15.1734 11.3704 196.636
1 6.93819 14.6943 24.116
1 7.0081 14.6314 21.2763
1 6.44846 19.4102 19.8896
1 34.3719 16.7585 19.8442
1 8.14612 17.4384 21.2902
1 7.99541 17.5102 18.4328
1 10.2304 18.8646 103.249
1 7.29129 22.245 16.625
1 10.3673 12.7293 196.445
1 10.0982 18.6101 106.175
1 11.4179 10.1042 196.442
1 14.1784 14.1791 196.707
1 12.9179 12.167 194.971
1 8.04512 13.4457 191.836
1 8.83606 10.7726 197.7
1 14.1007 14.2815 193.747
1 13.0855 12.2574 192.201
1 6.42456 19.4651 16.9265
1 8.78412 20.0812 18.3203
1 8.75005 20.2919 15.5092
1 9.66926 15.5967 190.489
1 7.37749 22.2562 13.8268
1 9.61262 22.885 15.2455
1 9.72406 22.8824 12.5238
1 10.5116 12.9181 190.732
1 11.898 14.8086 192.097
1 9.94022 18.4976 109.018
1 12.1198 15.007 189.23
1 8.79651 18.5098 187.435
1 9.74164 18.7837 111.905
1 9.67332 15.6867 187.696
1 11.0234 17.6701 189.122
1 33.2099 5.71009 104.66
1 6.61246 5.05295 105.941
1 11.3164 17.333 186.266
1 8.87699 18.3181 184.787
1 10.4003 20.3191 186.256
1 10.4662 20.3243 183.381
1 33.2999 9.53218 159.043
1 7.80941 6.26367 160.646
1 7.73085 6.54277 163.548
1 10.5626 5.13597 200.739
1 6.40941 4.46527 162.141
1 15.6512 4.02 198.076
1 11.7412 2.62607 197.82
1 12.4454 7.35346 196.386
1 9.84687 18.8118 114.953
1 7.86967 25.5896 197.562
1 13.3999 4.65033 196.514
1 9.69544 18.6982 117.72
1 14.8915 6.8185 195.101
1 12.6549 7.47951 193.47
1 13.518 4.80363 193.58
1 13.8708 9.39914 194.951
1 14.1545 9.6209 192.217
1 11.7132 10.223 190.602
1 6.773 4.9468 103.243
1 12.5392 7.41522 190.784
1 15.0322 22.9954 75.1614
1 11.7225 14.1145 70.4596
1 14.5471 18.3135 70.6218
1 11.5265 10.0258 193.56
1 11.1297 9.53316 71.7045
1 10.9837 9.36731 74.6207
1 9.5242 7.18644 73.0014
1 10.1349 12.1014 71.8457
1 9.6958 18.6323 120.439
1 11.9504 6.58042 74.8265
1 14.2054 9.55925 189.501
1 9.34273 18.4983 123.363
1 33.3476 5.6997 101.721
1 34.4851 7.80144 103.188
1 34.6069 7.54647 100.236
1 10.8237 12.9294 187.842
1 11.7547 10.0153 187.909
1 13.2227 12.1747 189.147
1 13.3846 12.0903 186.374
1 11.6839 6.70016 77.7187
1 34.2816 16.8232 16.9928
1 10.5974 4.701 76.1283
1 7.01008 14.7253 18.478
1 7.00652 14.674 15.4586
1 6.56342 19.4848 14.1097
1 34.2758 16.6676 13.9819
1 7.97384 17.3522 15.4541
1 7.88885 17.305 12.7493
1 9.28257 18.701 126.397
1 7.43596 22.1167 10.9391
1 10.1806 15.4904 184.742
1 9.12833 18.6916 129.12
1 10.9401 12.8753 185.034
1 12.5506 14.8591 186.295
1 12.55 15.015 183.583
1 9.10133 18.2603 181.878
1 10.1688 15.5893 181.976
1 11.3649 17.8126 183.545
1 11.4546 17.7704 180.484
1 6.42431 19.488 11.1583
1 8.97426 20.0815 12.5622
1 8.91412 20.186 9.77364
1 9.19633 18.3488 179.178
1 7.53376 22.1673 8.21788
1 9.81196 22.8755 9.67052
1 9.83055 22.6997 6.80304
1 10.4982 20.6282 180.566
1 10.6506 20.4619 177.563
1 8.96928 18.6327 132
1 34.228 6.96135 161.944
1 8.63974 3.82114 163.54
1 8.84071 18.4151 134.791
1 8.42115 3.77114 166.384
1 12.7649 24.3347 192.231
1 6.362 4.40729 164.878
1 12.0496 2.625 194.951
1 16.0084 4.06402 192.17
1 13.5997 4.64709 190.646
1 14.4096 26.2982 190.776
1 15.1302 6.96185 192.213
1 16.0816 4.11277 189.384
1 12.8647 7.52048 187.932
1 13.6737 4.99404 188.089
1 15.1245 6.87545 189.435
1 15.2694 6.88619 186.555
1 11.9996 10.1155 185.066
1 12.9976 7.48377 184.967
1 14.2716 9.43278 186.583
1 8.79202 18.3341 137.622
1 14.4211 9.57072 183.7
1 11.0852 12.9358 182.14
1 8.50246 18.6965 140.495
1 11.971 10.0949 182.285
1 13.4016 12.1078 183.613
1 13.4705 12.2443 180.764
1 10.3788 15.5046 178.923
1 11.1028 12.8286 179.257
1 12.4058 15.0479 180.631
1 12.7784 14.9681 177.841
1 9.35679 7.13101 75.9878
1 12.913 3.93531 77.6205
1 12.8342 3.91858 80.6221
1 10.6593 4.46084 78.8714
1 9.20101 18.2995 176.369
1 10.2505 15.521 176.115
1 11.6275 17.619 177.656
1 11.8708 17.4517 174.989
1 9.59474 18.2089 173.443
1 8.39222 18.5967 143.346
1 10.9227 20.2116 174.951
1 10.9316 20.263 171.998
1 8.3934 18.746 146.342
1 14.7609 2.21234 187.882
1 17.129 25.816 189.575
1 17.2868 25.8946 186.588
1 13.873 4.54309 185.265
1 14.8085 26.4479 185.15
1 16.2923 4.27392 186.487
1 16.4485 3.99198 183.735
1 12.9545 7.52707 182.185
1 34.3124 16.8447 11.3094
1 13.8712 4.90337 182.165
1 6.84443 14.6408 12.6025
1 6.85236 14.5556 9.8246
1 6.44473 19.587 8.35015
1 34.3315 16.7527 8.32854
1 7.67834 17.1868 9.80947
1 7.91353 17.3755 6.83793
1 8.28438 18.4253 149.097
1 7.4292 22.085 5.28925
1 15.4652 6.57888 183.782
1 8.14031 18.6563 151.883
1 33.4112 5.41216 98.8086
1 6.9531 4.80982 100.484
1 6.6734 5.01521 97.5137
1 15.6847 6.77701 181.014
1 33.2242 5.60337 95.8224
1 5.84445 7.4762 97.5349
1 6.01284 7.62195 94.6287
1 6.5386 19.5504 5.35206
1 8.7749 20.2342 6.95758
1 8.88927 20.0519 4.02304
1 12.3717 9.9713 179.305
1 7.48594 22.0122 2.37596
1 9.76857 22.5812 3.86691
1 9.82598 22.598 0.947299
1 13.1463 7.27562 179.437
1 14.6373 9.43927 181.006
1 7.80512 18.698 154.737
1 14.8602 9.4768 178.308
1 11.4084 12.7631 176.424
1 7.61117 18.6064 157.576
1 12.4289 9.99019 176.459
1 13.5737 12.1457 177.992
1 14.0178 12.0755 175.165
1 10.5626 15.6101 173.469
1 11.6031 13.1996 173.56
1 13.0746 14.9055 175.139
1 13.1366 14.8801 172.082
1 9.44053 18.1063 170.583
1 10.6559 15.5626 170.428
1 11.9658 17.5254 171.86
1 12.1615 17.5924 169.255
1 9.48785 18.3657 167.442
1 10.9558 20.0367 169.108
1 11.2169 20.3265 166.41
1 14.7936 26.4856 182.244
1 17.1995 25.6915 183.855
1 7.63832 18.6049 160.417
1 17.2779 25.8824 180.947
1 14.242 4.5573 179.405
1 7.51419 18.9454 163.46
1 15.1917 26.5633 179.288
1 16.5621 4.14815 180.706
1 16.7998 4.29667 177.952
1 13.4943 7.28379 176.702
1 14.3822 4.65701 176.469
1 15.6768 6.77816 177.925
1 15.9366 6.74886 174.974
1 12.7392 10.1516 173.814
1 13.4501 7.32797 173.91
1 15.088 9.22947 175.487
1 14.9627 9.33284 172.456
1 11.7138 12.8335 170.75
1 10.0461 12.0773 74.6546
1 9.97385 12.0083 77.463
1 8.40082 10.0123 75.8165
1 12.6569 9.99818 170.89
1 7.15332 18.7802 166.113
1 10.7845 9.30381 77.3892
1 14.2553 12.1792 172.331
1 6.97794 18.7659 169.066
1 14.308 12.1401 169.637
1 10.9285 15.6591 167.777
1 11.9667 12.847 167.98
1 13.2117 14.8503 169.289
1 13.3001 14.9851 166.42
1 9.7344 18.4031 164.73
1 10.9029 15.6562 165.011
1 10.8957 9.20025 80.2145
1 34.2224 16.6274 5.41142
1 9.38736 7.15212 78.867
1 7.00037 14.5793 7.15319
1 7.15823 14.7391 4.15762
1 6.46954 19.3388 2.68172
1 34.3028 16.6593 2.52214
1 7.99555 17.3707 3.96724
1 7.8672 17.2225 1.03918
1 7.06388 18.834 171.988
1 7.35143 22.1671 -0.411792
1 12.1604 17.7035 166.315
1 6.84905 19.0758 174.624
1 12.2851 17.7545 163.372
1 9.89514 18.1825 162.053
1 11.3568 20.2563 163.519
1 11.4708 20.283 160.699
1 15.3087 26.4696 176.468
1 17.5037 26.0962 177.973
1 17.7415 25.8955 175.159
1 6.52908 19.5073 -0.235196
1 8.91183 19.9587 1.13179
1 9.11394 20.2633 -1.68898
1 14.2852 4.44807 173.629
1 7.24311 22.0565 -3.14721
1 9.83617 22.7512 -1.76958
1 9.73471 22.6897 -4.66484
1 15.3179 26.3239 173.671
1 16.7839 4.09099 175.233
1 8.36068 20.8613 176.166
1 16.9286 4.06382 172.485
1 13.5501 7.15713 171.042
1 6.80917 18.8994 177.595
1 14.5475 4.30194 170.71
1 16.0277 6.57161 172.353
1 15.9706 6.74204 169.549
1 12.7394 10.0668 167.936
1 33.6365 5.46698 93.0861
1 7.04334 4.97959 94.574
1 7.37862 5.27686 91.7253
1 13.6312 7.3364 168.049
1 15.0483 9.44062 169.548
1 15.2939 9.35049 166.709
1 12.0522 12.961 165.197
1 13.1191 10.0767 165.222
1 14.3623 12.1208 166.601
1 14.4192 12.2129 163.762
1 11.1431 15.4337 161.994
1 12.1905 12.5935 162.124
1 6.60136 18.857 180.31
1 13.472 15.0727 163.62
1 13.6214 14.9214 160.721
1 6.39599 18.8368 183.159
1 10.0648 18.4478 159.206
1 11.362 15.4317 159.145
1 12.5671 17.6498 160.443
1 12.8017 17.5078 157.601
1 10.4354 18.2108 156.358
1 11.7745 20.1875 157.866
1 11.8926 20.0963 154.961
1 8.36368 9.92046 78.7881
1 11.5648 6.55342 80.7127
1 11.4365 6.51612 83.4767
1 10.1485 4.41514 81.9704
1 9.30644 7.0576 81.7481
1 12.5473 4.02111 83.299
1 12.3089 4.00348 86.2699
1 10.0453 4.54089 84.8036
1 34.5027 11.7344 160.289
1 6.38967 19.0397 185.984
1 34.6719 11.8034 163.187
1 15.6933 26.3544 170.777
1 6.30033 19.0632 188.915
1 33.1186 9.82387 161.842
1 18.0063 25.6948 172.417
1 33.6085 5.59034 90.328
1 6.2256 7.86855 91.7436
1 6.12741 7.78861 88.9148
1 18.2659 25.7717 169.467
1 14.67 4.85026 168.019
1 15.5422 26.4788 168.033
1 34.3907 16.4649 -0.399526
1 17.0978 4.09132 169.598
1 7.01949 14.5464 1.29558
1 7.14984 14.6131 -1.73474
1 6.44886 19.4442 -3.18765
1 34.3327 16.481 -3.05849
1 7.96322 17.4778 -1.71079
1 7.92572 17.2482 -4.49751
1 6.19089 18.9407 191.818
1 7.54705 22.0997 -5.96681
1 17.309 4.06689 166.684
1 34.7662 19.0099 194.683
1 13.9096 7.20269 165.177
1 14.8329 4.56964 165.189
1 16.23 6.66547 166.744
1 16.4564 6.80234 164.082
1 13.2094 9.94823 162.328
1 14.0364 7.14222 162.47
1 15.5337 9.4395 163.928
1 6.62532 19.3396 -5.87955
1 8.89507 20.0508 -4.52383
1 8.85303 20.0494 -7.30614
1 15.5852 9.51088 160.961
1 7.59657 22.1302 -8.83993
1 9.79736 22.8326 -7.43231
1 9.88677 22.9406 237.415
1 12.2573 12.8744 159.292
1 13.3128 9.89922 159.494
1 34.6437 18.9201 197.453
1 14.548 12.1669 160.872
1 14.7707 12.0595 157.96
1 32.8427 16.2692 205.037
1 11.4301 15.465 156.324
1 12.4267 12.6678 156.44
1 13.7065 14.7261 157.807
1 14.0902 14.7157 154.961
1 10.3705 18.187 153.419
1 11.3977 15.4411 153.489
1 12.7714 17.5754 154.886
1 12.9708 17.6494 152.259
1 10.6478 18.2258 150.669
1 12.0449 20.2724 152.151
1 12.0476 20.1105 149.32
1 6.80624 9.27971 163.35
1 6.70022 9.18361 166.227
1 15.7701 26.4355 165.244
1 34.1249 7.00504 164.684
1 18.0466 25.7964 166.65
1 6.89369 8.49615 204.665
1 18.4528 25.6163 163.809
1 14.9173 4.58472 162.335
1 30.9483 5.24408 203.571
1 15.9969 26.2996 162.198
1 17.3611 4.0034 163.891
1 17.3522 3.91434 160.951
1 14.0373 7.32451 159.337
1 15.1583 4.94074 159.462
1 16.4257 6.82736 161.001
1 16.5187 6.81885 158.05
1 13.4183 9.99593 156.682
1 14.1698 7.26764 156.593
1 15.8082 9.35538 158.061
1 15.7839 9.18287 155.255
1 12.3909 12.6511 153.685
1 9.5715 11.9433 80.2946
1 9.36818 11.8735 83.2471
1 34.3754 16.5317 -5.97896
1 8.44184 9.86098 81.6403
1 9.82767 6.4473 211.547
1 6.94039 14.4728 -4.57535
1 13.4051 10.0566 153.709
1 33.7084 5.32093 208.461
1 14.9674 11.9562 155.123
1 15.1407 12.0321 152.278
1 11.6315 15.5982 150.667
1 12.7393 12.7195 150.84
1 13.9672 14.8884 152.13
1 14.0704 14.6992 149.323
1 10.6832 18.1407 147.797
1 6.93727 14.5703 -7.39308
1 6.58135 19.3855 238.963
1 34.5674 16.5086 238.754
1 7.88475 17.2968 -7.44186
1 8.01838 17.339 237.417
1 7.63623 22.3401 236.048
1 6.40287 19.4625 236.103
1 8.93171 20.1755 237.455
1 8.83415 20.1231 234.551
1 9.99651 6.39791 214.408
1 11.7554 15.3538 147.879
1 13.1033 17.5144 149.274
1 10.0276 6.34786 217.206
1 13.1846 17.4033 146.493
1 10.7271 18.2087 144.971
1 33.8079 5.55299 87.4969
1 7.35483 5.2461 88.8008
1 7.66698 5.22196 86.1353
1 12.3059 20.0622 146.299
1 34.2079 5.8355 84.5254
1 7.66799 22.2831 233.142
1 9.94403 22.9109 234.658
1 10.1755 22.8471 231.787
1 12.5023 19.9226 143.692
1 32.9684 9.62955 164.558
1 10.5534 9.29085 83.1419
1 10.4053 9.19668 86.2098
1 9.01153 7.19984 84.721
1 8.09693 9.83558 84.6211
1 9.96281 6.1982 219.997
1 11.2331 6.50549 86.3386
1 6.54477 7.79175 86.0754
1 9.95817 6.64833 223.009
1 6.50921 7.83062 82.9771
1 7.53796 6.43502 166.543
1 7.56432 6.45862 169.278
1 16.0179 26.3646 159.59
1 6.1032 4.30211 167.726
1 18.4749 25.5882 161.017
1 11.2755 6.58022 89.2293
1 10.0205 4.47941 87.7574
1 8.8005 7.20511 87.6318
1 12.2147 3.90153 89.2352
1 12.0147 3.86652 91.8668
1 34.5828 16.7655 235.84
1 9.75004 4.49628 90.3996
1 7.2827 14.349 237.383
1 7.23713 14.5068 234.52
1 9.82137 6.60296 225.752
1 6.6825 19.4147 233.132
1 18.5264 25.7217 158.241
1 9.75543 6.55373 228.486
1 15.4929 4.5718 156.551
1 16.1645 26.388 156.693
1 34.5858 16.6122 232.999
1 8.10537 17.2442 234.507
1 8.22638 17.3137 231.591
1 9.15961 20.1841 231.721
1 17.7112 3.9455 158.372
1 17.7688 3.81389 155.289
1 14.3327 7.16585 153.69
1 15.4098 4.53237 153.621
1 16.803 6.68681 155.143
1 9.64856 6.51686 231.201
1 16.9277 6.50407 152.228
1 13.5436 9.98185 150.873
1 14.5999 7.36327 150.79
1 15.9953 9.32323 152.384
1 16.2619 9.40719 149.499
1 12.7489 12.58 147.812
1 7.2377 14.7206 231.65
1 13.8126 9.87134 147.926
1 15.1484 11.9589 149.543
1 9.49024 11.9839 86.0974
1 9.14698 12.0282 88.9391
1 15.1052 11.7501 146.673
1 11.9799 15.2702 144.938
1 12.9114 12.4856 144.939
1 14.255 14.7291 146.54
1 14.3441 14.6542 143.576
1 10.9412 18.1894 142.229
1 12.0114 15.1796 142.027
1 13.3183 17.324 143.6
1 13.4202 17.2892 140.835
1 11.1409 18.1323 139.273
1 12.4831 20.1767 140.826
1 12.8086 20.1239 137.668
1 33.9546 7.01302 167.664
1 8.36859 3.86226 169.336
1 8.29042 3.91354 172.25
1 16.4613 26.3034 153.906
1 7.10595 10.4259 231.395
1 6.16509 7.63293 231.489
1 6.3219 7.648 234.464
1 32.5735 7.12658 233.002
1 33.6382 9.76482 232.943
1 5.94055 4.67401 170.515
1 18.9237 25.6728 155.321
1 18.8304 25.7767 152.488
1 32.6754 7.19512 235.783
1 15.4798 4.547 150.769
1 16.3735 26.3136 151.037
1 17.963 3.97521 152.247
1 18.0947 3.78414 149.408
1 14.7173 7.24999 147.813
1 15.729 4.611 148.025
1 17.0541 6.60745 149.377
1 17.2923 6.56127 146.497
1 13.8861 9.63536 145.029
1 14.901 7.03887 144.916
1 34.2158 5.76274 81.4601
1 16.2902 9.28034 146.457
1 16.4648 9.11262 143.744
1 13.0999 12.2727 142.169
1 34.4941 12.4574 232.948
1 14.1693 9.77443 142.299
1 7.03491 10.4614 234.274
1 7.34368 10.3365 237.195
1 33.5584 9.64277 235.742
1 34.4968 12.4212 235.794
1 6.17621 7.75567 237.326
1 5.98282 7.87864 -7.53596
1 32.3525 7.35135 238.824
1 33.6382 9.87406 238.528
1 7.7683 5.26997 83.1389
1 7.92585 5.14143 80.1886
1 15.5187 11.9561 143.86
1 32.4379 7.09131 -5.89878
1 34.3692 5.82391 78.648
1 6.87197 7.8311 80.0831
1 15.5771 11.9064 140.74
1 12.0512 15.3725 139.089
1 13.1723 12.4578 139.196
1 14.4363 14.391 140.925
1 14.6145 14.5656 137.993
1 11.2541 18.0263 136.32
1 12.2222 15.1911 136.428
1 13.5687 17.3051 137.921
1 13.7284 17.253 135.067
1 11.2677 18.1793 133.528
1 12.4406 23.6365 230.176
1 14.6795 24.2173 228.758
1 12.8078 19.9368 134.857
1 13.2254 20.07 132.017
1 16.4487 26.2962 147.936
1 18.841 25.7912 149.528
1 19.0354 25.6066 146.708
1 16.0014 4.37405 145.191
1 16.6123 26.0591 145.17
1 18.2201 3.72348 146.656
1 34.3915 12.5314 238.686
1 18.4502 3.81864 143.839
1 7.13047 10.2908 -7.59031
1 6.98855 10.4334 -4.63927
1 33.3594 9.81999 -6.41033
1 34.3512 12.2677 -6.15925
1 6.13272 7.92339 -4.68959
1 6.04967 7.76914 -1.70701
1 32.532 7.08938 -3.18561
1 33.3958 9.63978 -3.05244
1 15.0446 6.97106 142.277
1 6.91857 7.88449 77.2438
1 16.0744 4.28509 142.401
1 32.3027 7.16403 -0.253773
1 17.4329 6.43814 143.739
1 17.5128 6.36328 140.907
1 14.2411 9.65077 139.554
1 15.1575 7.04073 139.356
1 16.6008 9.19941 141.01
1 16.7327 9.15948 138.073
1 13.3867 12.3943 136.398
1 14.3631 9.82342 136.483
1 15.7133 11.801 138.119
1 15.9927 11.8762 135.197
1 12.5025 15.3092 133.572
1 11.4587 20.9948 230.123
1 10.5218 18.1885 230.234
1 12.8477 18.8489 228.782
1 12.1421 23.4953 227.334
1 11.3622 20.8174 227.411
1 13.8433 21.5919 228.766
1 13.6467 21.5373 226.043
1 13.4593 12.6325 133.604
1 12.1732 23.5126 224.41
1 14.6588 24.1857 225.976
1 14.7106 24.1523 223.034
1 14.841 14.5644 135.162
1 14.9613 14.6291 132.259
1 11.3705 18.2483 130.596
1 12.6813 15.3682 130.604
1 34.3401 12.5292 -3.13378
1 13.6003 17.3293 132.146
1 6.97653 10.3563 -1.77431
1 7.14448 10.5088 1.10657
1 33.4156 9.81075 -0.264066
1 34.4518 12.7417 -0.320969
1 6.01395 7.74831 1.16864
1 34.8852 7.80539 4.00399
1 32.5677 7.0015 2.49909
1 33.4774 9.58961 2.60591
1 14.0472 17.4463 129.448
1 11.6174 18.1816 127.775
1 13.1777 20.0447 129.263
1 32.3125 7.0952 5.56005
1 13.3979 19.9351 126.568
1 17.1275 26.1951 142.37
1 19.3001 25.416 143.923
1 19.5286 25.4111 141.038
1 16.0405 4.45154 139.377
1 17.1665 26.1393 139.462
1 18.6233 3.75213 140.893
1 18.5603 3.74193 138.121
1 15.3254 7.20412 136.448
1 16.2654 4.21989 136.177
1 17.6104 6.39835 137.896
1 17.9401 6.51809 135.017
1 14.5496 9.90929 133.664
1 15.5642 7.0699 133.727
1 16.8483 9.26346 135.187
1 9.55295 15.2675 230.198
1 8.39039 12.6052 230.131
1 10.8201 13.1702 228.683
1 10.3963 18.1186 227.322
1 9.45978 15.2798 227.213
1 11.7485 15.8696 228.693
1 11.841 16.2045 225.777
1 11.0447 20.951 224.421
1 10.3301 18.1531 224.464
1 12.8272 19.0443 225.805
1 12.7448 18.9634 223.036
1 34.4637 12.5477 2.69717
1 12.1133 23.8661 221.561
1 7.03752 10.2495 4.05961
1 6.90484 10.4251 6.89424
1 33.3345 9.82837 5.48077
1 34.4525 12.4926 5.38082
1 5.7786 7.68275 6.73632
1 5.97642 7.78659 9.7129
1 32.4467 7.05963 8.53891
1 33.3607 9.80916 8.37257
1 17.0259 9.17969 132.278
1 34.75 5.62125 75.9498
1 8.09132 5.11276 77.381
1 32.4376 7.14808 11.3429
1 13.6101 12.5511 130.837
1 14.5911 9.77664 130.801
1 16.0137 11.9768 131.97
1 16.2777 11.7867 129.173
1 12.9618 15.4866 127.772
1 13.7517 12.568 128.078
1 15.1473 14.7083 129.442
1 15.2879 14.7517 126.389
1 11.8648 18.1155 124.81
1 12.7894 15.3685 124.913
1 8.07947 5.16033 74.2957
1 11.2417 21.0217 221.487
1 13.6413 21.6661 223.148
1 13.5955 21.5932 220.267
1 14.2758 17.3361 126.407
1 11.9401 23.6758 218.752
1 14.4462 24.143 220.24
1 14.3683 24.4735 217.436
1 14.4002 17.287 123.694
1 11.8421 18.2608 122.024
1 13.5428 20.1143 123.607
1 13.5561 19.9758 120.707
1 17.1603 26.0572 136.583
1 19.6086 25.457 138.131
1 19.6343 25.4684 135.232
1 16.4718 4.47666 133.515
1 34.236 12.5175 8.30374
1 17.1991 26.0968 133.66
1 6.98461 10.2533 9.68869
1 7.06349 10.4406 12.7712
1 33.5443 9.93973 11.2616
1 34.4464 12.4912 11.2437
1 6.09532 7.83264 12.5692
1 34.6273 7.926 15.4194
1 32.3897 7.08589 14.2667
1 33.2207 9.69545 13.9145
1 18.7567 3.64696 135.191
1 7.13869 7.76708 74.2997
1 8.75322 9.88662 72.9755
1 32.2558 7.16716 16.8608
1 7.16522 7.87275 71.4435
1 19.0554 3.90257 132.111
1 15.8213 7.20016 130.679
1 16.6715 4.52657 130.726
1 18.1114 6.49624 132.31
1 18.4564 6.60795 129.434
1 14.6922 9.8487 127.884
1 15.8303 7.29113 127.901
1 17.2633 9.26321 129.346
1 17.2167 9.27578 126.561
1 13.9765 12.7861 125.22
1 7.78763 9.82231 87.5525
1 14.8247 9.97274 125.049
1 10.2136 9.39848 88.8666
1 8.32942 12.7179 227.186
1 9.9794 9.27658 91.6734
1 9.87789 10.6325 228.576
1 9.85847 10.7002 225.792
1 9.35802 15.2768 224.397
1 8.32251 12.7129 224.424
1 10.8994 13.2426 225.833
1 10.8652 13.4007 223.052
1 10.2924 18.154 221.55
1 9.50406 15.4499 221.502
1 11.8596 16.1193 223.024
1 11.7182 16.1724 220.091
1 34.1797 12.7274 14.0489
1 11.1813 20.958 218.552
1 6.90738 10.3413 15.5677
1 6.89714 10.5111 18.3097
1 33.3643 9.90095 16.9087
1 34.3965 12.6335 16.7978
1 6.03791 7.9508 18.4221
1 34.7881 7.95945 21.0084
1 32.3722 7.23563 19.6798
1 33.1739 9.97226 19.7496
1 16.3508 11.9783 126.424
1 16.4471 11.8068 123.547
1 13.0476 15.3704 122.281
1 32.2895 7.10958 22.5442
1 13.9248 12.4959 122.305
1 15.4013 14.5086 123.633
1 15.5642 14.6026 120.616
1 12.2067 18.1026 119.188
1 13.2073 15.3383 119.318
1 14.5611 17.3431 120.757
1 14.6337 17.5959 117.954
1 12.2156 18.0883 116.447
1 13.5168 20.3634 117.847
1 13.8215 20.3262 115.052
1 34.3812 11.7768 165.872
1 10.3679 18.4505 218.683
1 12.7638 18.8502 220.228
1 12.6283 18.8374 217.271
1 12.0417 23.6597 215.943
1 11.0939 20.9826 215.846
1 13.6288 21.8031 217.383
1 13.6323 21.6631 214.499
1 6.71158 14.0954 170.301
1 12.1134 23.7741 213.089
1 14.6441 24.4358 214.638
1 13.515 21.7707 211.588
1 17.4557 26.2236 130.668
1 34.1367 11.8722 168.975
1 19.7844 25.7617 132.374
1 20.1344 25.6757 129.577
1 34.2545 12.6557 19.8869
1 16.6267 4.58606 127.909
1 6.9777 10.5103 21.2472
1 7.16545 10.3837 24.27
1 33.4271 9.80988 22.699
1 34.3915 12.5911 22.7021
1 5.88199 8.04292 24.2266
1 33.5594 10.0633 28.6041
1 32.3666 7.32897 25.1735
1 33.4423 9.90618 25.7163
1 17.4514 26.3459 127.697
1 18.9416 3.82658 129.352
1 19.2831 3.77824 126.571
1 31.2456 9.33493 29.9052
1 15.9444 7.19286 124.898
1 16.9941 4.51393 125.06
1 18.3566 6.30266 126.683
1 18.3833 6.50246 123.769
1 15.0699 9.99292 122.047
1 16.0872 7.37929 122.182
1 17.5074 9.28763 123.793
1 17.686 9.35887 120.869
1 14.327 12.4713 119.543
1 15.079 9.96286 119.329
1 34.5435 5.65075 72.6253
1 16.6354 12.1357 120.789
1 16.7331 11.9721 118.021
1 13.1476 15.5881 116.429
1 14.2167 12.7091 116.561
1 8.58805 7.19606 90.2988
1 7.73329 9.89304 90.1761
1 11.1751 6.72539 91.8617
1 10.9674 6.66701 94.8028
1 9.7419 4.805 93.3062
1 8.50381 7.0998 93.4248
1 12.0032 3.94229 95.1309
1 8.56533 12.7161 221.568
1 11.8398 3.68458 97.7602
1 9.94228 10.5897 222.843
1 9.81412 10.5621 219.991
1 34.3407 12.5315 25.7238
1 9.4373 15.4497 218.604
1 34.4385 12.5518 28.3254
1 34.5625 12.6556 31.398
1 32.212 11.8896 30.1121
1 32.9994 14.4857 29.8228
1 33.3495 9.96331 31.7474
1 33.4548 9.94968 34.6051
1 31.2134 9.41505 32.9928
1 32.0589 11.9759 33.0226
1 8.33814 5.40517 71.3989
1 6.99976 7.56038 68.6551
1 15.5935 14.9036 117.908
1 30.8197 9.48846 35.9831
1 34.5505 5.72452 69.8783
1 6.29306 10.1485 69.0141
1 15.9084 15.6592 67.7826
1 15.7827 14.8907 115.227
1 12.1706 18.3 113.66
1 13.2533 15.6798 113.577
1 14.7256 17.5683 115.204
1 14.7176 17.7538 112.218
1 12.3077 18.4298 110.786
1 13.8174 20.3828 112.21
1 14.2298 20.2445 109.108
1 8.36899 12.5623 218.628
1 10.6918 13.3968 220.056
1 10.812 13.3872 217.049
1 10.4365 18.0925 215.639
1 9.39532 15.4782 215.783
1 11.7406 15.9811 217.189
1 11.7016 16.3175 214.05
1 11.0322 21.1104 212.964
1 9.99735 18.1655 212.505
1 12.6327 19.0092 214.188
1 14.2461 16.8203 212.826
1 11.1554 20.7628 210.179
1 12.6813 18.8758 211.49
1 14.9906 19.5938 212.8
1 12.686 18.6784 208.679
1 32.9552 14.6615 32.8106
1 6.39363 9.25919 168.912
1 34.5514 12.6496 34.2286
1 33.241 14.081 38.2775
1 32.1241 11.9676 35.8601
1 33.0695 18.6164 35.9429
1 27.0355 13.9843 42.138
1 24.8587 13.9737 49.4755
1 23.3649 12.1406 41.715