8000
 Atoms. Timestep: 300000
1 16.2168 25.3283 232.262
1 15.4101 22.5531 232.305
1 17.7959 23.3128 230.842
1 16.2174 25.232 229.275
1 18.7661 26.0441 230.91
1 18.796 25.9846 228.102
1 14.3543 19.9904 232.037
1 7.91621 8.89718 235.296
1 13.4661 17.1255 232.126
1 16.0265 17.7809 230.859
1 15.1897 22.6301 229.438
1 14.2756 19.8886 229.223
1 16.8795 20.6458 230.721
1 16.7904 20.6235 228.017
1 16.4396 25.2173 226.636
1 16.1515 15.2701 68.1763
1 18.7051 14.7214 66.8371
1 7.7518 9.01629 238.208
1 8.45119 20.346 29.2924
1 15.2046 22.5576 226.468
1 7.88947 9.13816 241.162
1 32.6856 5.42246 121.985
1 33.9318 7.38811 123.361
1 34.0316 7.4905 120.51
1 17.7725 23.3567 228.031
1 17.7845 23.2772 225.178
1 16.5118 25.2394 223.73
1 18.8044 25.8827 225.25
1 21.3117 2.16658 223.774
1 24.9334 11.3564 61.7608
1 9.86971 18.5423 30.6788
1 32.1889 23.6387 25.4282
1 12.7112 14.5286 232.345
1 11.5898 11.5963 232.245
1 7.71308 9.20745 243.91
1 14.0708 12.481 231.075
1 13.5449 17.3344 229.259
1 7.82514 9.11341 -12.1989
1 12.7568 14.3514 229.462
1 15.0277 15.1821 230.914
1 15.0694 15.1162 228.151
1 14.425 19.8185 226.407
1 13.5088 17.0375 226.4
1 15.9959 18.0512 228.084
1 15.9957 17.8785 225.097
1 15.5365 22.6156 223.452
1 14.3723 19.7325 223.673
1 16.8628 20.5111 225.114
1 16.8976 20.4681 222.194
1 16.4831 25.1793 220.778
1 15.3333 22.4993 220.54
1 17.9656 23.2294 222.3
1 17.8923 23.1257 219.469
1 12.5832 26.6097 226.351
1 7.83957 8.98125 -9.2163
1 15.0456 2.69268 222.328
1 16.5166 25.2316 218.124
1 7.74208 8.82021 -6.38643
1 10.6299 8.90439 232.248
1 6.80052 4.08757 161.966
1 11.8867 6.86491 231.019
1 11.6149 11.7569 229.477
1 10.5806 8.94374 229.531
1 12.9736 9.62545 230.928
1 12.9716 9.61502 228.098
1 14.3593 8.66333 68.2339
1 14.9113 13.2118 66.973
1 12.0973 13.8946 70.7883
1 10.8804 11.8826 69.3481
1 17.4296 17.4188 69.7386
1 13.0872 11.2322 70.9947
1 9.43267 9.6241 70.6928
1 10.1017 7.03319 73.6435
1 12.5132 14.3786 226.64
1 7.65555 8.92039 -3.66679
1 11.5366 11.6803 226.534
1 14.0137 12.3079 228.149
1 7.8572 9.09533 -0.68448
1 13.8736 12.4328 225.212
1 13.5046 16.9455 223.525
1 12.536 14.3945 223.721
1 14.9785 15.0557 225.179
1 14.9846 14.9553 222.422
1 14.5127 19.7493 220.782
1 13.6721 17.1761 220.787
1 16.0346 17.6953 222.236
1 13.53 11.2768 68.214
1 15.9216 17.7505 219.301
1 15.8931 10.7729 66.9926
1 22.7622 12.2516 31.9372
1 5.94401 19.737 28.3675
1 6.79334 14.9553 29.4121
1 12.9942 14.3458 30.666
1 7.44476 17.9738 26.7432
1 8.05051 8.94647 2.23769
1 33.5739 21.7817 26.6267
1 15.1867 22.6304 217.829
1 7.83877 8.8848 5.12054
1 14.5146 19.9121 217.87
1 16.8737 20.4612 219.466
1 17.4591 15.5877 217.892
1 15.3541 22.2227 214.943
1 16.8708 20.2333 216.501
1 18.598 18.3694 217.859
1 18.6484 18.2135 215.057
1 6.14772 19.98 25.3155
1 7.03727 22.6252 25.1178
1 8.55754 20.7 23.9234
1 11.8643 25.0079 209.477
1 7.1955 22.7477 22.2994
1 9.46722 23.2529 23.8405
1 9.53635 23.1365 20.8965
1 14.7066 19.7876 212.198
1 14.1739 21.5157 209.913
1 7.91285 8.80449 7.87181
1 10.7111 8.85035 226.821
1 11.949 6.65235 228.074
1 7.82439 8.9515 10.6168
1 11.8838 6.84653 225.173
1 11.6239 11.5883 223.774
1 10.7125 8.79114 223.965
1 13.0772 9.71062 225.222
1 12.9899 9.50993 222.339
1 12.6195 14.3455 220.809
1 11.7226 11.622 220.876
1 14.051 12.2662 222.222
1 14.1365 12.3291 219.273
1 13.593 17.1529 217.901
1 12.7018 14.3784 217.877
1 14.9879 15.0324 219.286
1 14.0782 12.4269 216.431
1 16.1218 17.636 216.493
1 15.0208 15.0113 216.374
1 16.4631 13.0224 217.847
1 7.82504 8.97285 13.5374
1 16.5259 13.0431 214.811
1 16.014 17.5893 213.485
1 6.55796 11.1446 18.1301
1 15.1067 15.0472 213.325
1 17.487 15.6192 214.878
1 32.6839 5.67135 119.04
1 6.27946 4.93881 120.533
1 6.21628 4.94063 117.824
1 18.4399 18.2453 212.255
1 33.0142 5.57844 116.255
1 9.6939 24.5881 207.94
1 16.4192 17.2698 210.522
1 19.0387 21.2038 209.596
1 14.5554 23.551 208.115
1 10.8654 22.0198 205.239
1 13.2122 21.4189 206.681
1 14.8417 23.5715 205.279
1 10.7153 8.71267 220.734
1 12.0173 6.81064 222.407
1 6.57071 11.1085 20.9207
1 23.6189 15.1811 32.2955
1 34.1821 7.70089 117.795
1 6.54347 11.0177 23.6313
1 34.5239 7.26986 114.92
1 12.1536 6.90232 219.498
1 11.6289 11.7588 217.88
1 10.7503 8.79387 217.832
1 12.9871 9.67677 219.28
1 14.5351 7.66526 217.862
1 11.7769 11.8585 214.953
1 18.874 19.4002 68.7327
1 6.81552 15.1156 26.6158
1 16.7754 24.6535 74.279
1 15.8939 10.4613 30.8806
1 6.80735 15.0994 23.7885
1 6.19374 20.033 22.3545
1 34.1104 17.3725 22.3557
1 7.66411 18.0587 23.8768
1 7.58613 17.9746 20.8455
1 34.0792 13.1532 27.8113
1 7.24918 22.8341 19.3537
1 13.0271 9.69357 216.352
1 30.0135 13.6761 30.3246
1 15.3776 10.2867 217.889
1 14.2432 7.43319 215.048
1 14.1444 12.2565 213.52
1 13.0189 9.8169 213.466
1 15.3373 10.0962 214.781
1 15.0953 10.117 211.559
1 13.5795 17.1711 212.09
1 6.20659 20.0991 19.2945
1 8.41915 20.5522 20.8134
1 8.50993 20.7867 17.888
1 16.5759 12.6199 212.047
1 6.99519 22.6239 16.5503
1 9.36711 23.5057 18.0077
1 9.25067 23.4367 14.9955
1 17.6464 15.4506 211.998
1 18.2 15.896 208.395
1 26.9068 17.1375 32.9125
1 11.6447 22.235 208.725
1 16.8078 19.9501 210.612
1 18.1296 22.1101 71.2992
1 18.9355 18.4705 209.444
1 15.8554 20.6009 208.071
1 8.55839 22.7608 203.313
1 14.3943 18.8245 206.34
1 18.346 20.2133 206.841
1 13.4408 21.5943 203.701
1 10.3162 24.9482 202.055
1 12.5325 24.1337 203.804
1 14.1062 26.2203 202.538
1 12.6885 2.16874 217.739
1 13.8536 4.86456 218.005
1 12.244 26.6912 220.84
1 12.3151 6.34786 213.53
1 10.9849 3.86155 216.455
1 13.4928 4.54619 215.172
1 12.6862 4.05963 212.252
1 8.68582 16.8997 72.0542
1 12.5476 9.63846 210.373
1 12.2403 6.44738 210.518
1 10.9974 21.0731 81.0191
1 14.1598 7.56077 212.165
1 14.3272 7.68028 209.235
1 16.677 22.6737 209.539
1 11.0635 9.87797 207.863
1 14.3081 12.6919 210.582
1 16.4873 9.02595 208.409
1 15.2267 16.0072 206.758
1 16.7096 13.6523 206.591
1 18.8933 19.5609 71.2318
1 10.5687 11.6393 72.0952
1 12.065 9.39007 69.5625
1 11.0502 16.3648 70.8976
1 11.6053 8.95158 72.3349
1 12.3602 6.39754 75.262
1 11.0654 4.41442 73.8238
1 9.12379 9.4912 73.4859
1 13.5831 20.8834 79.6271
1 13.3289 3.80884 75.0534
1 16.4854 18.0128 207.967
1 11.0107 20.9683 83.8909
1 18.0219 15.684 205.455
1 16.1173 21.1146 202.305
1 14.5083 18.9758 203.507
1 17.0866 18.2929 205.288
1 18.8118 20.3737 201.055
1 13.9827 21.6215 198.182
1 33.1856 5.23303 113.482
1 13.2436 3.75044 78.0215
1 33.8436 17.1602 19.3821
1 10.8258 4.34072 76.7111
1 6.61643 15.1813 20.7589
1 6.51284 15.0242 17.8862
1 6.15799 19.9381 16.3907
1 34.0041 17.2569 16.6513
1 7.5017 17.9525 17.9132
1 7.55604 17.7227 15.1517
1 13.345 20.4611 85.2863
1 6.89545 22.5894 13.5596
1 6.70729 4.67353 115.044
1 13.0445 20.5144 88.0042
1 6.85604 4.86205 112.034
1 13.635 21.5362 200.901
1 33.186 5.44894 110.575
1 34.3904 7.27492 111.928
1 12.8056 24.159 200.724
1 14.8507 18.8688 197.935
1 9.1811 22.6932 195.054
1 6.05156 19.9854 13.7099
1 8.57013 20.6249 15.0244
1 8.44485 20.7499 12.1635
1 11.751 22.1586 196.423
1 7.0569 22.5913 10.7594
1 9.29798 23.4564 12.2195
1 9.26274 23.4224 9.20935
1 10.8306 24.664 193.269
1 6.50671 11.6218 157.738
1 13.2552 20.4835 90.7339
1 6.1801 11.5938 160.603
1 9.37484 2.81045 211.256
1 11.5843 18.5882 92.4507
1 33.7675 9.38481 158.872
1 12.3917 26.4959 215.003
1 13.7586 4.70094 208.568
1 12.0228 7.08121 207.785
1 7.66019 25.4139 203.612
1 11.774 3.22351 209.636
1 34.7718 7.31979 109.101
1 15.6217 3.73309 206.619
1 13.4985 9.06776 206.56
1 12.2676 6.99593 205.092
1 14.4435 6.26265 206.563
1 16.0227 8.60254 205.586
1 15.5532 16.144 203.736
1 12.5502 11.9049 203.477
1 14.8303 11.2934 205.355
1 14.0799 14.0073 202.37
1 11.2224 18.7466 95.2913
1 14.6175 18.8721 200.745
1 15.8005 16.1691 200.845
1 11.4188 18.3664 98.149
1 16.9709 18.2937 202.462
1 13.1992 16.9235 199.262
1 10.9888 17.6263 197.591
1 10.7775 12.7084 196.175
1 12.0193 14.7303 197.935
1 13.5849 16.8078 196.497
1 11.2613 22.4239 199.267
1 9.83542 15.3847 196.346
1 12.6629 19.5373 196.343
1 11.2693 17.3337 194.872
1 8.95135 18.1424 193.415
1 9.54081 22.5953 192.038
1 10.4667 20.0646 192.092
1 7.34545 8.96577 160.596
1 7.04684 8.70775 163.253
1 12.8959 4.25054 205.305
1 11.3288 18.23 100.845
1 34.391 6.54633 162.059
1 14.0145 26.1892 205.301
1 10.7686 18.4893 103.879
1 15.7254 3.77138 203.885
1 13.7281 9.15999 203.691
1 13.1922 4.56014 202.332
1 12.4571 7.11732 202.052
1 14.936 6.7362 200.962
1 12.7302 11.9049 200.803
1 13.8417 9.31726 200.92
1 15.1602 11.3839 202.601
1 33.9942 17.1916 13.5548
1 15.415 11.4366 199.56
1 6.46957 14.9626 15.0741
1 6.45971 15.0131 12.2345
1 34.7256 19.982 10.7848
1 33.6908 17.0145 10.737
1 7.51176 17.8803 12.2284
1 7.24295 17.8388 9.42868
1 10.7936 18.2943 106.724
1 7.08698 22.5714 7.95763
1 10.5963 12.7217 199.152
1 10.6505 18.4364 109.612
1 11.5755 9.858 199.225
1 14.3518 14.2121 199.543
1 13.0726 12.1017 197.924
1 8.43413 13.1081 194.685
1 8.99256 10.4302 200.59
1 14.4184 14.2169 196.682
1 13.1496 11.9157 195.125
1 34.8534 19.9376 7.79027
1 8.43668 20.6745 9.37712
1 8.4678 20.6096 6.42158
1 9.82803 15.2605 193.47
1 6.93947 22.5709 4.97657
1 9.34033 23.4235 6.26604
1 9.23825 23.1284 3.5596
1 10.9243 12.5629 193.35
1 12.2628 14.6587 194.94
1 10.5749 18.5155 112.314
1 12.44 14.6163 192.079
1 9.01829 17.961 190.559
1 10.2641 18.7533 115.013
1 10.1117 15.2545 190.754
1 11.456 17.4024 192.126
1 33.2888 5.33669 107.61
1 6.99368 4.82427 109.189
1 11.6176 17.1655 189.211
1 9.22504 17.828 187.676
1 10.5658 19.9813 189.201
1 10.6193 19.9203 186.324
1 33.4984 9.29772 161.764
1 8.20564 6.07675 163.443
1 7.9394 5.94008 166.234
1 10.7738 4.9538 203.783
1 6.66692 3.97446 164.669
1 15.8322 3.97363 201.15
1 11.8541 2.58849 200.761
1 12.5058 7.31902 199.353
1 10.1423 18.8542 117.883
1 7.97175 25.7622 200.695
1 13.4698 4.5704 199.496
1 9.95864 18.3571 120.809
1 14.9167 6.70167 197.925
1 12.6386 7.28667 196.533
1 13.681 4.55659 196.552
1 14.1234 9.55567 198.057
1 14.2049 9.12785 195.269
1 11.9515 9.84433 193.513
1 7.046 4.8796 106.325
1 12.7723 7.12211 193.635
1 15.1572 22.7517 78.4249
1 12.134 13.804 73.7658
1 15.1567 18.1508 73.9123
1 11.7009 9.85446 196.517
1 11.3847 9.17641 75.1136
1 11.4159 9.00336 78.0439
1 9.962 6.80325 76.6712
1 10.4507 11.9142 75.0588
1 9.9439 18.5381 123.486
1 12.3704 6.41487 78.1597
1 14.4605 9.05154 192.333
1 9.88721 18.4758 126.323
1 33.436 5.34353 104.766
1 5.88462 7.344 106.218
1 6.07549 7.26563 103.436
1 11.0105 12.6596 190.626
1 12.0839 9.75789 190.627
1 13.4692 11.8765 192.24
1 13.6431 11.9269 189.373
1 12.2755 6.2679 81.0645
1 33.8227 17.0209 7.87268
1 10.9429 4.18874 79.3986
1 6.30389 14.9985 9.33553
1 6.58572 15.0397 6.48111
1 34.7599 20.0075 4.93634
1 33.9953 17.2563 4.95804
1 7.52991 17.8309 6.68498
1 7.40876 18.0429 3.54166
1 9.68336 18.3024 129.253
1 6.86651 22.572 2.12232
1 10.2537 15.122 187.754
1 9.31175 18.7134 132.069
1 11.2326 12.4184 187.852
1 12.6141 14.6324 189.309
1 12.7347 14.3821 186.523
1 9.30043 17.8297 184.696
1 10.4796 15.1424 184.924
1 11.6667 17.0709 186.41
1 11.9495 17.1366 183.473
1 34.8847 19.9729 2.00784
1 8.47619 20.6083 3.51552
1 8.36122 20.6922 0.656456
1 9.34982 17.979 181.867
1 6.96851 22.6033 -0.855612
1 9.30779 23.3996 0.681051
1 9.37105 23.2224 -2.11097
1 10.7949 20.0278 183.463
1 10.9475 20.0975 180.572
1 9.35715 18.4221 134.863
1 34.4111 6.55311 164.902
1 8.81008 3.32318 166.428
1 9.31375 18.4537 137.795
1 8.87079 3.25173 169.306
1 13.0467 24.1767 194.924
1 6.352 3.95143 167.43
1 12.1623 2.60204 197.948
1 16.1688 3.82383 195.185
1 13.8991 4.41658 193.764
1 14.7098 26.192 193.633
1 15.1578 6.48372 195.147
1 16.3537 3.63939 192.43
1 12.8841 7.17962 190.665
1 14.0051 4.38312 190.966
1 15.2985 6.47875 192.336
1 15.5806 6.3349 189.587
1 12.1905 9.71467 187.805
1 13.039 6.94305 188.039
1 14.5702 8.99557 189.475
1 9.15545 18.3711 140.629
1 14.7562 8.96658 186.527
1 11.4363 12.3509 184.884
1 8.99431 18.3748 143.499
1 12.4129 9.75576 185.035
1 13.7372 11.9437 186.55
1 13.8134 11.7022 183.703
1 10.5633 15.0354 181.985
1 11.5697 12.3143 181.98
1 12.811 14.4438 183.599
1 13.0394 14.4698 180.776
1 9.96663 6.93013 79.5015
1 13.125 3.54529 80.9626
1 12.9892 3.345 83.7551
1 10.6361 4.04669 82.3004
1 9.54493 17.9293 179.166
1 10.6724 15.0894 179.196
1 12.0644 17.1724 180.606
1 12.1174 17.1192 177.934
1 9.49428 17.9266 176.195
1 8.81487 18.5004 146.361
1 11.1462 19.7491 177.859
1 11.1371 19.9938 175.063
1 8.60222 18.5026 149.001
1 14.9798 26.0479 190.843
1 17.2987 25.3487 192.216
1 17.3397 25.3734 189.442
1 14.2415 4.25361 188.197
1 15.1513 26.1013 187.935
1 16.6704 3.60861 189.477
1 16.7106 3.65126 186.699
1 13.3878 6.76148 185.236
1 33.8281 17.2499 1.99848
1 14.3518 4.29521 185.229
1 6.51674 15.1574 3.56275
1 6.44575 15.0533 0.742609
1 34.694 19.9374 -0.687628
1 33.7587 17.3011 -0.683345
1 7.51648 17.9093 0.60519
1 7.33019 17.8358 -2.20577
1 8.47118 18.2357 152.158
1 6.9002 22.85 -3.75019
1 15.6725 6.36506 186.793
1 8.35934 18.3976 155.004
1 33.6258 5.29567 101.971
1 7.16988 4.77835 103.5
1 7.27371 4.83746 100.661
1 15.7621 6.30955 183.903
1 33.8357 5.37845 98.9938
1 6.32522 7.55161 100.498
1 6.45447 7.53546 97.7495
1 34.7169 20.0985 -3.60752
1 8.25978 20.7121 -2.26542
1 8.39504 20.558 -4.96097
1 12.5233 9.80426 182.229
1 7.11078 22.427 -6.55664
1 9.17379 23.5666 -4.97336
1 9.47918 23.7135 -7.85211
1 13.3956 6.95145 182.16
1 14.6772 8.95303 183.777
1 8.35194 18.2678 157.691
1 14.9202 8.99971 180.895
1 11.642 12.368 179.237
1 8.05302 18.1357 160.576
1 12.7417 9.49739 179.237
1 14.1195 11.7138 180.883
1 14.0115 11.8372 177.94
1 10.7309 15.189 176.444
1 11.8542 12.5339 176.302
1 13.2082 14.5038 177.769
1 13.2617 14.4359 174.985
1 9.7887 17.7998 173.586
1 10.844 15.0379 173.6
1 12.2739 17.2072 174.987
1 12.2711 17.2373 172.224
1 10.0274 17.5842 170.768
1 11.2319 19.6702 172.231
1 11.5294 19.7989 169.453
1 15.2431 26.054 185.142
1 17.5319 25.3449 186.64
1 7.76307 18.3052 163.406
1 17.8975 25.2567 183.762
1 14.4691 4.11899 182.349
1 7.65342 18.3981 166.23
1 15.4221 25.7793 182.189
1 16.7894 3.65122 183.601
1 16.9686 3.6357 180.979
1 13.6233 6.74237 179.371
1 14.5147 4.23043 179.539
1 15.9764 6.2316 180.972
1 16.161 6.43074 178.074
1 12.7681 9.63002 176.488
1 13.7166 6.76283 176.409
1 15.121 9.18735 177.955
1 15.2795 9.05692 175.068
1 11.8368 12.334 173.517
1 10.3582 11.6604 78.0474
1 10.1606 11.6655 80.9475
1 8.81258 9.52994 79.2292
1 12.7896 9.49581 173.726
1 7.71913 18.1856 169.085
1 11.1317 9.08929 80.8611
1 14.1538 11.5887 175.06
1 7.43434 18.2773 171.987
1 14.5141 11.7714 172.339
1 11.0055 14.8865 170.797
1 12.2196 12.111 170.694
1 13.4259 14.2837 171.964
1 13.381 14.5113 169.232
1 10.1855 17.7998 167.828
1 11.1105 15.0869 167.798
1 11.0933 8.78081 83.6081
1 33.8969 17.2038 -3.53544
1 9.70442 6.80526 82.315
1 6.33025 15.0939 -2.08896
1 6.39833 15.1857 -5.1479
1 5.84095 20.0074 -6.58857
1 33.6704 17.2606 -6.65685
1 7.15812 17.9455 -4.9871
1 7.22303 17.9841 -7.97318
1 7.10602 18.4128 174.919
1 7.01095 22.7773 -9.37068
1 12.5483 17.2617 169.426
1 6.83976 18.5549 177.828
1 12.6728 17.033 166.355
1 10.0354 17.8991 165.196
1 11.7189 19.7289 166.406
1 11.9075 19.7813 163.593
1 15.5668 26.114 179.368
1 18.0219 25.3486 181.077
1 18.112 25.1411 178.161
1 34.7361 20.0831 -9.61652
1 8.2651 20.6283 -7.99149
1 8.24608 20.6545 -10.9786
1 14.7492 4.3645 176.62
1 6.75013 22.6405 -12.1398
1 9.35713 23.4711 -10.7387
1 9.00296 23.4701 -13.5505
1 15.6559 25.9475 176.557
1 17.1053 3.62793 177.971
1 8.47217 20.4657 179.336
1 17.256 3.64119 175.222
1 13.9152 6.94874 173.686
1 6.87884 18.367 180.468
1 14.9958 4.28818 173.796
1 16.3946 6.27083 175.27
1 16.4467 6.38807 172.483
1 13.0387 9.49979 170.892
1 33.923 5.39465 96.3245
1 7.50746 4.81078 97.9607
1 7.9071 4.98596 95.2844
1 14.3259 7.03246 170.986
1 15.5748 9.01653 172.334
1 15.5262 9.07572 169.709
1 12.1644 12.1186 167.921
1 13.3175 9.61957 168.082
1 14.6479 11.5995 169.561
1 14.6578 11.7332 166.722
1 11.2363 15.219 164.968
1 12.5783 12.3856 164.97
1 6.91136 18.4252 183.237
1 13.6986 14.3612 166.555
1 13.8904 14.463 163.709
1 6.86654 18.3748 186.289
1 10.3824 17.6276 162.156
1 11.5819 14.9857 162.299
1 12.8403 17.2172 163.574
1 13.0166 17.1345 160.753
1 10.7031 17.8787 159.384
1 12.0428 19.7493 160.875
1 11.9545 20.0407 158.071
1 8.72221 9.53698 82.0886
1 11.852 5.98368 83.8809
1 11.8345 6.30263 86.7729
1 10.5073 4.09084 85.1907
1 9.50112 6.68223 85.2146
1 12.7723 3.36352 86.6722
1 12.6669 3.65169 89.5264
1 10.3545 4.12593 87.9955
1 6.07374 11.3112 163.447
1 6.83862 18.4008 189.032
1 6.0057 11.4038 166.126
1 15.7255 25.9256 173.861
1 6.60577 18.6143 191.917
1 33.2429 9.34839 164.678
1 18.193 25.3609 175.39
1 34.1452 5.52195 93.7247
1 6.41836 7.53883 95.1171
1 6.69208 7.53113 92.2704
1 18.2193 25.2566 172.599
1 15.1615 4.20294 171.136
1 16.08 25.939 170.786
1 33.5278 17.3139 -9.45822
1 17.4521 3.6472 172.384
1 6.30512 15.2053 -7.7965
1 6.41377 15.3098 -10.6609
1 34.4511 20.1662 -12.5526
1 33.6119 17.2925 -12.2883
1 7.28476 17.8492 -10.8646
1 7.3211 18.093 -13.637
1 6.51729 18.706 194.744
1 6.81315 22.8643 243.684
1 17.6668 3.52606 169.602
1 6.29912 18.7067 197.636
1 14.2568 6.76075 168.087
1 15.3676 4.10398 168.123
1 16.5779 6.31872 169.516
1 16.6747 6.09205 166.795
1 13.3637 9.55051 165.37
1 14.494 6.85965 165.321
1 15.8418 8.98832 166.863
1 34.7625 20.2612 243.732
1 8.15326 20.6804 -13.8434
1 8.28359 20.8353 242.311
1 15.7547 8.94692 163.867
1 6.9094 22.6796 240.858
1 9.2012 23.3691 242.298
1 9.08435 23.468 239.388
1 12.694 12.2945 162.224
1 13.4833 9.70185 162.492
1 6.01034 18.72 200.365
1 14.9057 11.6446 163.931
1 15.0491 11.6996 160.968
1 32.9483 16.1609 207.586
1 11.6811 15.2824 159.35
1 12.6681 12.4858 159.413
1 14.055 14.4096 160.871
1 14.2502 14.6213 158.134
1 10.9096 18.0483 156.261
1 11.8469 15.1669 156.467
1 13.1182 17.3068 158.052
1 13.3386 17.2454 155.252
1 10.8373 18.087 153.594
1 12.3583 20.0046 154.982
1 12.2604 20.0197 152.226
1 7.0462 8.81157 166.149
1 6.85702 8.6897 168.958
1 16.2391 25.7223 168.131
1 34.3874 6.64423 167.578
1 18.6472 25.3341 169.643
1 7.90831 6.77052 207.96
1 18.7927 25.1351 166.971
1 15.5199 4.22742 165.229
1 30.6973 3.98285 208.05
1 16.2057 25.855 165.323
1 17.8762 3.41016 166.678
1 17.9075 3.57381 163.815
1 14.5352 6.81949 162.35
1 15.3575 4.06246 162.313
1 16.8056 6.31367 163.745
1 16.9633 6.25831 160.838
1 13.6289 9.84373 159.539
1 14.6812 6.89455 159.482
1 16.0862 9.02365 160.955
1 16.1975 9.12546 158.09
1 12.6989 12.5444 156.733
1 10.1665 11.5572 83.7249
1 9.92496 11.7158 86.4411
1 33.8528 17.4723 243.694
1 8.48624 9.4692 85.0138
1 9.88134 6.02563 214.873
1 6.4184 15.3268 -13.4756
1 13.8279 9.70171 156.735
1 34.1376 5.19094 211.644
1 15.4019 11.7391 158.243
1 15.2072 11.6614 155.36
1 11.9299 15.3312 153.694
1 12.9113 12.459 153.813
1 14.2214 14.3811 155.268
1 14.5148 14.4317 152.474
1 10.782 17.9657 150.754
1 6.45954 15.3666 242.55
1 34.7064 20.2099 240.741
1 33.7532 17.392 240.906
1 7.32797 18.1453 242.108
1 7.32993 18.1534 239.502
1 6.79181 22.8943 238.055
1 34.5456 19.9824 237.867
1 8.23308 20.9249 239.327
1 8.38827 20.8223 236.411
1 9.52083 6.07545 217.591
1 12.0519 15.2821 150.767
1 13.3597 17.2675 152.221
1 9.72775 6.15459 220.523
1 13.4231 17.3273 149.473
1 11.1488 17.8905 148.04
1 34.0532 5.35091 90.8737
1 7.87488 4.92093 92.0778
1 8.00618 4.68051 89.3667
1 12.6321 19.917 149.392
1 34.244 5.31464 88.0453
1 6.86809 22.7715 235.146
1 9.30529 23.4288 236.363
1 9.13273 23.5027 233.584
1 12.7949 20.1612 146.649
1 33.3629 9.23731 167.381
1 10.8205 9.03816 86.5214
1 10.7964 8.9253 89.3214
1 9.26594 6.78212 88.1166
1 8.34132 9.44746 87.9577
1 9.42403 6.41636 223.172
1 11.818 6.18366 89.4384
1 6.77833 7.35712 89.4874
1 9.02158 6.96774 225.71
1 6.92318 7.41573 86.4719
1 7.79852 5.74885 169.095
1 7.58265 5.8823 172.024
1 16.2693 25.9135 162.503
1 6.31927 3.94951 170.577
1 18.7045 25.3386 164.142
1 11.664 6.18332 92.2633
1 10.4476 4.28567 90.8444
1 9.32272 6.89497 90.9348
1 12.6696 3.6214 92.3695
1 12.4663 3.71777 95.2416
1 33.7311 17.3261 238.074
1 10.1593 4.22062 93.6185
1 6.47687 15.2864 239.62
1 6.38297 15.2367 236.664
1 9.18281 6.87143 228.395
1 5.93746 20.0616 235.121
1 18.9473 25.2763 161.173
1 9.2411 6.86952 231.08
1 15.6066 3.98529 159.597
1 16.529 25.9563 159.62
1 33.6708 17.2588 235.19
1 7.42112 18.0502 236.704
1 7.18022 17.8507 233.59
1 8.21427 20.7449 233.65
1 18.0557 3.56446 161.056
1 18.2743 3.509 158.387
1 14.8657 6.78908 156.605
1 15.7873 4.076 156.693
1 17.2539 6.05785 158.004
1 9.32847 7.16109 233.898
1 17.3858 6.29576 155.287
1 14.0473 9.69825 153.866
1 14.9585 6.91322 153.866
1 16.3916 8.8975 155.335
1 16.4954 8.82375 152.465
1 13.1874 12.3142 151.152
1 6.2044 15.2202 233.631
1 14.2061 9.58445 150.985
1 15.4605 11.6101 152.586
1 9.80534 11.3887 89.2986
1 9.58368 11.696 92.1866
1 15.5797 11.7381 149.603
1 12.1474 15.0352 148.136
1 13.2914 12.3341 147.943
1 14.6313 14.3926 149.541
1 14.5637 14.6214 146.834
1 11.2927 17.941 145.064
1 12.4003 15.1823 145.248
1 13.6427 17.448 146.789
1 13.8676 17.263 143.953
1 11.2932 17.7251 142.14
1 12.8868 19.9047 143.51
1 12.748 19.8559 140.801
1 34.1291 6.74701 170.423
1 8.68459 3.14383 172.283
1 8.48427 3.13909 175.299
1 16.6365 25.9068 156.759
1 6.35799 11.0246 233.825
1 34.1795 8.31007 234.029
1 34.1779 8.23451 236.953
1 31.8993 7.92568 235.596
1 32.759 10.5413 235.251
1 6.27088 3.79147 173.578
1 19.1549 25.2774 158.26
1 19.1999 25.3501 155.448
1 32.0534 7.68737 238.356
1 15.8732 4.08078 153.919
1 16.9711 25.8073 153.879
1 18.1961 3.51278 155.507
1 18.3322 3.40506 152.593
1 15.1874 6.86844 150.972
1 15.9763 4.21545 150.97
1 17.4629 6.08195 152.57
1 17.5311 6.13838 149.579
1 14.3464 9.6109 148.163
1 15.2758 6.87837 148.097
1 34.5383 5.41254 84.7969
1 16.7413 8.99381 149.556
1 16.7739 9.09091 146.692
1 13.4284 12.4475 145.199
1 33.5178 13.292 235.306
1 14.2668 9.45592 145.231
1 6.38645 11.0531 236.625
1 6.44158 11.0356 239.57
1 32.9794 10.4349 238.214
1 33.6841 13.1273 238.015
1 34.2777 8.42628 239.818
1 34.3573 8.43911 242.702
1 32.0572 7.68969 241.243
1 32.8293 10.4784 241.061
1 7.87622 4.88498 86.4992
1 8.2096 4.55632 83.7335
1 15.7261 11.51 146.7
1 31.9052 7.56957 244.135
1 34.6484 5.42189 82.0811
1 7.23251 7.27936 83.5351
1 15.8253 11.788 143.973
1 12.5732 15.2617 142.323
1 13.6187 12.3708 142.291
1 14.8025 14.4438 143.811
1 14.9999 14.6594 141.001
1 11.58 18.0192 139.289
1 12.7093 15.1344 139.411
1 13.9245 17.3271 140.934
1 13.8988 17.2338 137.955
1 11.7326 17.9796 136.444
1 11.1963 24.1429 232.255
1 13.8515 24.609 231.022
1 13.3171 19.9485 138.004
1 13.3747 20.0129 135.121
1 16.9459 26.0071 151.011
1 19.4201 25.3757 152.471
1 19.4678 25.2892 149.791
1 16.1648 4.061 148.264
1 17.1524 25.9245 148.333
1 18.5994 3.56214 149.815
1 33.779 13.3366 240.959
1 18.6667 3.58855 146.969
1 6.45204 11.1035 242.467
1 6.34078 11.1942 -13.5963
1 32.893 10.392 244.013
1 33.8743 13.2755 244.002
1 33.9936 8.43077 -13.3399
1 34.1229 8.40364 -10.6372
1 31.8626 7.35087 -11.9166
1 32.7037 10.3342 -12.0759
1 15.496 6.9929 145.256
1 7.37296 7.42561 80.5771
1 16.4072 4.17021 145.324
1 31.7159 7.58694 -9.25365
1 17.6365 6.16002 146.854
1 17.7133 6.3609 143.997
1 14.4501 9.58743 142.309
1 15.476 6.90694 142.373
1 16.7331 9.03324 144.031
1 17.0425 9.00214 141.137
1 13.8528 12.4817 139.419
1 14.6695 9.84598 139.553
1 16.0336 11.7936 141.145
1 16.3238 11.907 138.07
1 12.7864 15.0351 136.448
1 10.5768 21.3773 232.047
1 9.51186 18.5195 232.08
1 11.8902 19.0987 230.688
1 11.4545 24.1005 229.335
1 10.6851 21.3235 229.329
1 12.9811 21.9563 230.742
1 12.998 21.9676 227.911
1 13.8229 12.4069 136.451
1 11.3892 23.9737 226.43
1 13.8621 24.6669 228.029
1 14.0491 24.6708 225.123
1 15.277 14.4298 138.125
1 15.4993 14.4274 135.384
1 11.8664 17.9741 133.666
1 13.1956 15.2763 133.824
1 33.7627 13.1334 -12.2151
1 14.3105 17.3504 135.147
1 6.40103 10.9679 -10.7232
1 6.32341 10.8245 -7.7965
1 32.6083 10.4023 -9.3738
1 33.6513 13.1062 -9.14828
1 34.184 8.22739 -8.01398
1 34.2138 8.15729 -5.02118
1 31.8333 7.74849 -6.43635
1 32.7814 10.2716 -6.48594
1 14.3914 17.2289 132.388
1 11.8529 17.8039 130.911
1 13.4591 19.9478 132.479
1 31.8956 7.71495 -3.6188
1 13.4133 19.9502 129.697
1 17.1975 25.8858 145.538
1 19.8606 25.3453 146.901
1 19.9325 25.2978 144.015
1 16.5806 4.31068 142.427
1 17.6497 26.028 142.574
1 18.8345 3.54138 143.973
1 19.1111 3.63044 141.008
1 15.6971 7.07482 139.666
1 16.6866 4.256 139.632
1 18.213 6.27603 141.082
1 18.2871 6.20452 138.328
1 14.8712 9.75619 136.593
1 15.8835 7.02884 136.8
1 17.1758 9.04537 138.271
1 8.63374 15.7275 232.259
1 7.80197 13.1831 232.473
1 10.2674 13.7396 230.947
1 9.62411 18.3741 229.172
1 8.59809 15.8047 229.438
1 11.308 16.5676 230.627
1 11.1083 16.487 227.734
1 10.4997 21.169 226.396
1 9.58248 18.396 226.165
1 11.8472 19.2086 227.88
1 12.0189 18.9771 224.991
1 33.7673 13.0773 -6.31704
1 11.6937 23.8577 223.695
1 6.3595 10.9561 -5.12295
1 6.43192 10.9502 -2.09951
1 32.8933 10.5577 -3.55237
1 33.6448 13.1349 -3.56582
1 34.1713 8.29078 -2.12866
1 34.123 8.16392 0.619908
1 31.8469 7.42011 -0.784227
1 32.8549 10.2935 -0.78554
1 17.3168 9.1504 135.411
1 5.84614 5.2606 79.3896
1 8.32186 4.94062 81
1 31.8473 7.66145 2.11345
1 14.0666 12.2979 133.44
1 14.7865 9.54795 133.789
1 16.3553 11.6977 135.279
1 16.6052 11.6203 132.523
1 13.1703 15.2514 131.012
1 14.0845 12.451 130.89
1 15.7107 14.6516 132.457
1 15.6269 14.6695 129.656
1 12.2938 17.9385 128.019
1 13.2126 15.0366 128.25
1 8.32502 5.01356 78.2499
1 10.6324 21.0801 223.473
1 12.9659 21.8411 224.993
1 13.0048 21.7934 222.086
1 14.5297 17.2438 129.532
1 11.4809 23.9661 220.698
1 13.8441 24.5167 222.157
1 13.9341 24.6424 219.444
1 14.5991 17.2524 126.699
1 12.3768 17.8794 125.189
1 13.6175 19.8692 126.65
1 13.8523 20.0135 123.785
1 17.4568 26.1161 139.708
1 19.9621 25.2589 141.149
1 19.9736 25.3824 138.491
1 16.5 4.13775 136.868
1 33.8516 13.0767 -0.784198
1 17.5095 25.9476 136.797
1 6.29117 11.0011 0.876533
1 6.52906 10.9287 3.67867
1 32.7987 10.2962 2.05927
1 33.7432 12.9899 2.12408
1 34.3244 8.25585 3.40763
1 33.9806 8.22253 6.28288
1 31.7288 7.66894 5.01333
1 32.9043 10.2992 4.90776
1 18.9519 3.56417 138.143
1 7.48404 7.39044 77.7603
1 9.08439 9.60709 76.4967
1 31.7407 7.31814 7.74229
1 7.53865 7.52916 75.0418
1 19.01 3.56525 135.441
1 15.7993 7.0098 133.998
1 16.6154 4.1351 134.113
1 18.2009 6.32397 135.229
1 18.3377 6.32524 132.454
1 15.0858 9.74732 130.953
1 16.1187 7.03358 131.026
1 17.3227 8.76234 132.582
1 17.4836 9.17309 129.712
1 14.179 12.4584 128.01
1 8.03493 9.56829 90.8194
1 15.2517 9.70613 128.113
1 10.4216 9.02209 92.16
1 7.95082 13.1645 229.699
1 10.6515 9.01641 95.0215
1 9.22668 11.1042 230.769
1 9.12159 11.0971 228.196
1 8.77189 15.6416 226.322
1 7.89864 13.0315 226.639
1 10.1075 13.7898 228.062
1 10.1286 13.6106 225.005
1 9.55167 18.3784 223.405
1 8.4683 15.7367 223.636
1 11.077 16.3091 224.947
1 10.9092 16.2555 222.111
1 33.9396 12.9862 4.87514
1 10.584 21.1327 220.533
1 6.50902 10.9455 6.38786
1 6.48579 10.9541 9.10948
1 32.8685 10.1949 7.71904
1 33.9738 12.9054 7.74374
1 34.2923 8.33344 9.1361
1 34.4295 8.2121 12.0756
1 32.0692 7.72227 10.6362
1 32.9928 10.2404 10.6561
1 16.4702 11.8827 129.682
1 16.9447 11.5953 126.703
1 13.4401 15.2223 125.196
1 31.8923 7.66043 13.4086
1 14.3001 12.5306 125.25
1 15.7184 14.5488 126.522
1 15.6674 14.6291 123.858
1 12.4002 18.1581 122.231
1 13.3634 15.2062 122.441
1 14.6347 17.2535 123.824
1 14.6779 17.3356 120.993
1 12.4632 18.1241 119.355
1 14.0184 20.163 121.001
1 14 20.1212 117.997
1 34.7484 11.3556 169.031
1 9.67133 18.5487 220.502
1 12.0679 19.049 222.109
1 12.0826 19.0859 219.188
1 11.5 24.1099 217.911
1 10.5734 21.1107 217.625
1 12.9149 21.7725 219.171
1 12.7776 22.1813 216.064
1 6.87065 13.4103 173.3
1 11.3426 24.0253 214.664
1 13.8898 24.6141 216.706
1 13.1551 21.727 213.34
1 17.661 25.9029 133.793
1 34.5327 11.2893 171.868
1 20.2274 25.4478 135.48
1 20.236 25.4009 132.549
1 33.8537 13.0081 10.6741
1 16.9404 4.04288 131.17
1 6.47409 10.9552 11.9567
1 6.58433 10.7463 15.0064
1 33.1359 10.2366 13.5653
1 34.1549 12.907 13.5639
1 34.1775 8.194 14.9506
1 33.0825 10.1829 19.5382
1 31.907 7.62154 16.1687
1 33.0419 10.2613 16.5296
1 17.8525 25.9384 130.981
1 19.3783 3.54067 132.628
1 19.5918 3.47245 129.671
1 30.8164 9.59459 20.8588
1 16.2011 6.86417 128.158
1 17.2574 4.22994 128.169
1 18.4788 6.26056 129.732
1 18.715 6.22586 127.019
1 15.2665 9.81483 125.26
1 16.5425 7.11918 125.259
1 17.6003 8.92104 126.846
1 17.7711 9.22423 124.065
1 14.306 12.4922 122.249
1 15.3792 10.0062 122.285
1 6.13143 5.37292 76.4135
1 16.7619 11.9457 123.914
1 16.975 11.9464 121.224
1 13.4828 15.3536 119.337
1 14.5698 12.4653 119.542
1 8.97015 7.04775 93.77
1 8.13441 9.68978 93.6573
1 11.6142 6.30816 95.1099
1 11.436 6.38534 98.0426
1 10.1148 4.41956 96.5497
1 9.08053 6.91262 96.7344
1 12.4031 3.74201 98.0662
1 7.75836 13.1342 223.64
1 12.116 3.68155 100.932
1 9.26086 10.9907 225.077
1 9.35669 11.0406 222.176
1 33.8274 12.8963 16.4964
1 8.67438 15.8602 220.581
1 33.9176 12.9749 19.2424
1 33.9765 13.0762 22.3265
1 31.5888 12.4032 20.7734
1 32.5713 15.0685 20.8034
1 33.0978 10.489 22.3877
1 33.0131 10.4719 25.1757
1 30.7311 9.7898 23.8367
1 31.6453 12.4762 23.7216
1 8.679 5.13 74.8475
1 7.60231 7.45264 72.048
1 15.7809 14.5894 121.024
1 30.6757 9.78826 26.6598
1 6.22359 5.37433 73.6318
1 6.71912 10.0473 72.0128
1 16.0474 15.3432 71.0811
1 16.1234 14.6788 118.159
1 12.4254 18.2899 116.443
1 13.5154 15.5855 116.548
1 14.9507 17.516 118.106
1 15.1739 17.4232 115.34
1 13.0014 18.0476 113.728
1 14.2224 20.2875 115.179
1 14.3709 20.0518 112.559
1 7.89531 12.9755 220.726
1 10.3158 13.7459 222.413
1 10.1967 13.733 219.255
1 9.59348 18.5262 217.591
1 8.84133 15.7417 217.719
1 11.1856 16.491 219.414
1 11.1189 16.3814 216.508
1 10.5707 21.1748 214.564
1 9.67773 18.4305 214.837
1 12.0716 19.2638 216.319
1 13.5229 17.0583 214.982
1 9.17408 21.4225 211.198
1 12.2077 18.9739 213.403
1 14.4633 19.7243 214.931
1 11.939 20.1706 210.919
1 32.699 15.2427 23.5936
1 6.58475 8.54887 171.953
1 34.1502 13.159 25.1556
1 32.6586 14.626 29.327
1 31.5514 12.4193 26.5751
1 32.5432 19.1974 26.7929
1 29.4251 10.6509 30.2212
1 26.4771 14.3056 33.1037
1 22.111 9.27498 32.2007