8000
 Atoms. Timestep: 50000
1 19.0052 24.5806 228.248
1 17.9213 22.0481 228.424
1 20.3826 22.7261 226.778
1 19.0764 24.7916 225.348
1 21.4915 25.4532 226.87
1 21.5634 25.4919 223.799
1 17.1084 19.1477 228.38
1 10.2234 8.47855 0.393237
1 16.2438 16.4531 228.39
1 18.5414 17.3762 226.822
1 17.9426 22.0422 225.568
1 17.1695 19.3707 225.36
1 19.5701 20.1745 226.961
1 19.4798 20.073 223.992
1 18.9494 24.8182 222.48
1 9.86888 18.8967 57.7699
1 9.75046 21.9105 56.7962
1 10.3999 8.2585 3.30713
1 9.78836 21.5756 54.0622
1 18.12 22.0231 222.576
1 10.3203 8.13674 6.20368
1 30.5483 6.32742 113.55
1 31.9598 8.24081 114.943
1 32.129 8.34484 112.003
1 20.5138 22.8224 223.946
1 20.4695 22.823 220.936
1 19.0821 24.6697 219.583
1 21.3864 25.5931 220.961
1 23.7807 26.2212 219.501
1 8.32142 23.2267 52.0264
1 10.2557 24.4277 53.5268
1 10.2618 24.5567 50.5943
1 15.1726 13.9105 228.349
1 14.0831 11.1334 228.249
1 10.237 8.30845 9.04976
1 16.6311 11.8586 226.687
1 16.397 16.5809 225.24
1 10.2319 8.45518 11.9562
1 15.1121 13.8275 225.361
1 17.5653 14.5287 226.597
1 17.704 14.492 223.629
1 17.2227 19.508 222.298
1 16.3112 16.4936 222.373
1 18.6161 17.375 223.805
1 18.5569 17.3674 220.864
1 18.2105 21.9948 219.417
1 17.0873 19.433 219.429
1 19.5795 20.0667 220.982
1 19.4106 19.9697 217.693
1 18.809 24.6936 216.604
1 18.1276 22.0011 216.491
1 20.494 22.6152 218.006
1 20.484 22.5825 214.893
1 15.3361 25.8375 219.554
1 10.5497 8.56926 14.9407
1 17.4984 2.42495 217.866
1 18.9801 24.5238 213.497
1 10.286 8.38072 17.981
1 13.1328 8.43421 228.264
1 6.66235 5.01339 154.757
1 14.4257 6.13276 226.722
1 14.3649 11.077 225.199
1 13.3112 8.24004 225.075
1 15.6956 9.13049 226.772
1 15.6578 9.1899 223.916
1 7.95552 23.5418 55.1112
1 9.15403 16.4205 58.9855
1 7.78949 14.5675 60.5123
1 6.01244 12.4224 58.9613
1 10.6027 18.5163 60.5436
1 8.42797 11.8099 60.4349
1 34.4046 7.50491 60.4901
1 34.2677 7.72261 63.4998
1 15.2542 13.7544 222.371
1 10.3917 8.37261 21.0066
1 14.3263 11.0811 222.415
1 16.6865 11.9125 223.873
1 10.0614 8.30342 24.0371
1 16.5637 11.9583 220.953
1 15.9722 16.6524 219.499
1 15.2336 13.8359 219.371
1 17.6183 14.7085 220.689
1 17.3658 14.7275 217.764
1 16.8933 19.2922 216.314
1 16.0843 16.729 216.259
1 18.5067 17.3198 217.94
1 7.52757 14.4678 57.6327
1 18.6502 17.2993 214.906
1 10.446 11.5637 56.3869
1 8.89873 9.85826 54.8358
1 7.00468 18.3738 54.4534
1 9.21616 13.7407 55.4583
1 9.16859 16.5779 55.8858
1 9.82104 17.0352 52.3698
1 10.1811 8.08668 26.7088
1 7.9553 23.6091 49.2532
1 17.8976 22.0529 213.239
1 10.3237 8.39974 29.8091
1 17.0122 19.2918 213.48
1 19.3824 20.1183 214.901
1 20.0337 15.4509 213.344
1 17.9524 22.0174 210.505
1 19.4699 20.1853 212.149
1 20.909 18.1089 213.35
1 21.0499 18.1295 210.357
1 8.53746 19.0844 50.6796
1 9.58666 21.7131 50.3255
1 10.9299 19.653 48.9515
1 15.4058 20.2221 206.719
1 9.73574 21.7381 47.3156
1 11.9185 22.4281 49.0789
1 12.2229 22.3792 45.9559
1 17.7357 19.3624 207.413
1 17.6945 21.16 205.225
1 10.2534 8.26301 32.7463
1 13.5241 8.34004 222.221
1 14.8352 6.34937 223.946
1 10.2904 8.45281 35.6544
1 14.6861 6.28727 220.642
1 14.076 10.8694 219.465
1 13.2262 8.09983 219.189
1 15.6604 9.0722 220.778
1 15.7584 9.19791 217.92
1 15.3308 13.7852 216.511
1 14.216 11.3052 216.577
1 16.6949 11.9024 217.897
1 16.5656 11.9057 214.759
1 16.1043 16.7398 213.422
1 15.1493 14.0489 213.335
1 17.5779 14.5851 215.007
1 16.3748 11.8127 211.871
1 18.5765 17.3907 212.031
1 17.5356 14.7303 212.025
1 18.9214 12.4758 213.367
1 10.3075 8.44802 38.5168
1 18.8275 12.5522 210.429
1 18.4737 17.4739 209.113
1 8.98926 10.395 42.8721
1 17.4243 14.9839 209.022
1 19.8926 15.4295 210.422
1 30.7183 6.1484 110.751
1 33.1827 5.6856 112.055
1 33.0967 5.71801 108.926
1 20.8917 18.1878 207.42
1 30.6859 6.4404 107.875
1 15.3609 21.4142 203.595
1 19.2998 18.2114 204.879
1 20.0186 20.6101 206.224
1 20.601 20.3591 203.527
1 15.519 21.5464 200.755
1 18.0236 20.9112 202.367
1 16.888 23.4653 199.306
1 13.2359 8.30336 216.389
1 14.6011 6.00085 217.849
1 8.90257 10.3941 46.0578
1 10.2541 24.715 56.3959
1 32.1389 8.26528 109.142
1 9.01485 10.1926 48.9583
1 31.9713 8.2568 106.179
1 14.3449 6.41036 214.589
1 14.1414 11.4561 213.559
1 12.9317 8.59293 213.582
1 15.573 9.16507 214.829
1 17.0695 7.2101 213.426
1 13.9399 11.1331 210.828
1 9.56871 21.012 60.0421
1 9.12127 13.9063 52.0935
1 10.0073 25.5905 61.8094
1 12.9163 8.08278 53.2471
1 9.18064 13.9956 48.9677
1 8.65272 19.1565 47.5126
1 7.75637 16.115 47.5439
1 9.97212 17.0378 49.1914
1 10.0892 17.0826 45.878
1 7.56555 11.9663 53.5496
1 9.69039 21.8807 44.5524
1 15.4757 9.26318 212.312
1 7.65438 11.6724 56.7267
1 17.9668 9.7256 213.329
1 17.2689 7.19569 210.593
1 16.2856 12.3621 208.782
1 15.5631 9.13988 209.529
1 17.9789 10.0334 210.362
1 17.984 10.6113 207.756
1 17.6239 16.2648 206.475
1 8.72217 19.1721 44.6334
1 11.1264 19.6394 45.9708
1 11.2381 19.7144 43.1098
1 18.2616 13.5408 206.684
1 9.87676 21.7431 41.8722
1 12.2163 22.3278 43.1927
1 12.1512 22.306 40.3621
1 19.9438 15.466 207.676
1 19.8585 15.4944 204.735
1 33.5335 9.93059 57.468
1 16.7356 18.9442 203.855
1 17.6989 16.4031 203.5
1 8.51285 23.5389 60.2552
1 21.5716 17.4745 203.348
1 19.0437 18.2742 202.233
1 13.0402 21.8399 199.096
1 16.7258 18.937 200.911
1 20.4097 20.3584 200.63
1 15.6068 21.4586 197.776
1 12.3213 24.8101 195.643
1 14.5192 24.2864 197.461
1 16.0191 26.2613 196.204
1 14.9009 26.3452 210.526
1 16.1338 4.47895 213.475
1 15.3702 26.213 213.588
1 15.2607 6.5528 208.862
1 14.9641 3.63772 208.174
1 16.0774 4.53651 210.451
1 16.5515 5.62489 206.551
1 6.53947 21.0585 63.8947
1 15.6812 9.34657 206.323
1 14.4727 7.0643 205.362
1 7.49311 18.429 66.4986
1 17.4339 7.93124 207.844
1 17.6573 8.00769 204.991
1 18.7981 13.3105 203.51
1 15.8189 9.38654 203.424
1 17.4297 11.1663 205.024
1 17.9133 8.44245 202.023
1 17.6318 16.1227 200.469
1 18.605 13.3315 200.522
1 11.8808 20.411 62.1012
1 6.17388 12.3733 61.8942
1 33.5841 10.2642 60.5307
1 9.27435 20.8272 62.6602
1 6.99271 9.62409 61.8894
1 8.09932 6.77431 65.1763
1 6.50855 5.06357 63.8834
1 33.6094 10.3974 63.5167
1 9.11423 20.5136 68.2207
1 9.10045 4.13514 65.0963
1 19.9721 15.5117 201.849
1 9.01831 20.4094 71.0822
1 20.0227 15.3367 199.035
1 18.1096 20.8213 196.177
1 16.6378 18.8022 197.721
1 18.9758 18.1078 199.128
1 20.2649 20.3068 194.713
1 15.7273 21.5035 191.742
1 30.9617 6.23537 104.643
1 8.93328 4.18782 68.0706
1 7.71489 16.4728 44.5424
1 6.83509 4.72135 66.4542
1 9.10181 14.1671 45.9725
1 9.03096 14.3324 43.1358
1 8.82745 19.1661 41.7159
1 7.68612 16.4237 41.7322
1 10.1286 17.0073 43.0567
1 10.0812 17.1201 40.3216
1 8.96707 20.1234 73.8342
1 9.72829 21.6775 38.9058
1 33.1607 5.75241 106.096
1 8.95155 20.0761 76.6174
1 33.3711 5.65107 103.199
1 15.6705 21.5353 194.671
1 30.7951 6.29775 101.671
1 32.148 8.24138 103.196
1 14.708 24.2964 194.576
1 16.6894 18.9055 191.707
1 10.7307 23.0655 188.693
1 8.72987 19.1414 38.7507
1 11.2482 19.7552 40.208
1 10.9778 19.7667 37.1732
1 13.2348 22.0868 189.984
1 9.83762 21.8941 35.8666
1 12.1889 22.2926 37.6084
1 12.1531 22.4067 34.2796
1 12.1692 24.7833 186.977
1 6.20205 12.2133 150.361
1 9.02826 19.9428 79.4874
1 6.06777 12.2178 153.085
1 14.8484 4.00453 205.124
1 7.38924 18.3824 81.1587
1 33.5906 10.0015 151.926
1 15.6427 25.491 207.284
1 17.2729 3.67065 203.323
1 14.4317 7.21678 201.799
1 14.9752 4.22887 201.784
1 16.3321 6.19354 203.459
1 32.2292 8.46376 100.241
1 17.4291 3.71642 200.523
1 15.6567 9.30178 200.389
1 14.131 7.08901 198.917
1 16.6605 6.371 200.5
1 18.0969 8.38609 199.125
1 17.705 16.2025 197.622
1 14.6828 12.1242 197.599
1 17.1151 11.3556 198.945
1 16.1749 14.3525 196.272
1 7.54286 17.9856 84.1227
1 16.7397 18.8057 194.686
1 17.6824 16.0352 194.812
1 7.44462 18.3749 86.8435
1 19.0677 18.1366 196.066
1 15.1957 16.8287 193.199
1 12.8908 17.5943 191.813
1 12.4617 12.8578 190.163
1 13.7531 14.7989 191.673
1 15.1301 16.8592 190.249
1 13.2413 22.1685 193.192
1 11.4364 15.5862 190.226
1 14.1994 19.5427 190.323
1 12.6904 17.6341 188.86
1 10.5618 18.2524 187.265
1 10.6659 22.5515 185.854
1 11.6977 20.2448 185.941
1 7.09905 9.49844 153.251
1 7.19557 9.45856 156.349
1 15.0543 4.58963 199.167
1 7.57267 18.441 89.8814
1 34.5327 7.3342 155.051
1 16.0062 26.1981 199.014
1 7.39732 18.2174 92.6781
1 17.462 4.03367 197.61
1 15.689 9.35813 197.576
1 15.1909 4.47396 196.313
1 14.2621 7.22462 195.985
1 16.5789 6.50577 194.606
1 14.7736 12.2637 194.639
1 15.6568 9.43128 194.76
1 17.086 11.3617 196.134
1 7.76166 16.4415 38.6411
1 17.1106 11.2308 193.181
1 9.09796 14.3436 40.2057
1 9.1457 14.3014 37.0305
1 8.6141 19.0597 35.7645
1 7.62686 16.4052 35.6795
1 10.1123 16.9813 36.9111
1 9.99803 17.0109 34.2883
1 7.22685 18.2093 95.8078
1 9.74578 21.7076 32.9305
1 12.2435 12.6574 193.212
1 7.47519 18.4441 98.8197
1 13.3952 9.97008 193.256
1 16.2057 14.1645 193.161
1 14.7573 12.0669 191.768
1 9.86955 13.4971 188.61
1 10.7025 10.7436 194.607
1 16.2072 14.0726 190.3
1 14.7552 12.2113 188.807
1 8.6316 19.0759 32.7914
1 10.9656 19.7818 34.409
1 10.9454 19.6374 31.3003
1 11.3379 15.5013 187.222
1 9.55973 21.676 29.8471
1 11.8183 22.3217 31.213
1 11.969 22.5102 28.5874
1 12.4645 12.7499 187.341
1 13.7416 15.0434 188.715
1 7.45764 18.2961 101.585
1 13.8271 14.8514 185.671
1 10.3453 18.1819 184.319
1 7.14392 18.3259 104.594
1 11.3769 15.5375 184.266
1 12.8009 17.6518 185.675
1 30.8548 6.29571 98.8426
1 33.3129 5.73329 100.409
1 12.5548 17.5136 182.724
1 10.3455 18.2458 181.1
1 11.6794 20.0816 182.777
1 11.7262 20.3876 180.029
1 33.5831 10.0429 154.652
1 8.22201 6.89145 156.307
1 8.21359 6.83727 159.063
1 12.7343 5.21343 197.569
1 6.86375 4.78799 157.485
1 17.4815 3.72281 194.614
1 13.6577 2.62008 194.695
1 14.3036 7.11975 193.108
1 7.38305 18.3851 107.698
1 9.98614 25.5532 194.117
1 15.1419 4.60048 193.016
1 7.50277 18.2508 110.491
1 16.7626 6.55854 191.808
1 14.4291 7.39025 190.197
1 15.2422 4.58647 190.186
1 15.6855 9.33967 191.888
1 15.8087 9.34174 188.68
1 13.4835 10.0713 187.277
1 33.1684 5.75156 97.4152
1 14.1504 7.4237 187.299
1 10.7814 22.8899 61.93
1 7.3635 14.4981 63.5392
1 7.71298 18.7642 63.4608
1 13.4198 10.0827 190.271
1 7.20482 9.69602 64.8832
1 7.17278 9.54905 67.9036
1 34.5152 7.60784 66.4535
1 6.10119 12.3749 65.013
1 7.42453 18.549 113.491
1 8.03556 6.82664 68.0209
1 15.7402 9.38911 185.814
1 7.6977 18.5796 116.516
1 30.8082 6.4529 95.6947
1 32.1694 8.34107 97.3797
1 32.2637 8.21203 94.3498
1 12.3757 12.677 184.101
1 13.3517 10.1042 184.28
1 14.9725 12.1802 185.612
1 14.7636 12.0519 182.783
1 8.00229 6.73292 70.9498
1 7.36671 16.3406 32.7657
1 6.61219 4.82822 69.4941
1 8.82799 14.2289 34.1671
1 8.96112 14.234 31.4143
1 8.56287 19.0471 29.8882
1 7.50951 16.3888 29.8445
1 9.96269 16.9383 31.4379
1 10.1183 16.9633 28.4833
1 7.36846 18.5498 119.386
1 9.65411 21.7717 27.2945
1 11.3617 15.4325 181.24
1 7.34893 18.4843 122.587
1 12.2239 12.6358 181.159
1 13.6586 14.787 182.748
1 13.6848 14.8201 179.812
1 10.4161 18.3494 178.322
1 11.3108 15.4145 178.348
1 12.7526 17.3271 179.728
1 12.8695 17.4189 176.926
1 8.65141 19.1449 27.1207
1 11.0998 19.7864 28.4429
1 10.8818 19.8444 25.5893
1 10.4649 18.2247 175.444
1 9.30642 21.7802 24.2174
1 11.8706 22.2714 25.4072
1 12.0907 22.4386 22.5881
1 11.5301 20.4982 177.143
1 11.7562 20.4082 174.206
1 7.42791 18.403 125.354
1 34.4684 7.3988 157.887
1 9.06716 4.29471 159.135
1 7.26444 18.2968 128.295
1 9.07279 4.29405 162.035
1 14.9005 24.2731 188.556
1 6.78468 5.04997 160.494
1 13.7172 2.57419 191.559
1 17.6479 3.9335 188.753
1 15.2007 4.39688 187.025
1 16.3279 26.2572 187.119
1 16.5124 6.53566 188.597
1 17.7439 3.98034 185.722
1 14.1142 7.44275 184.242
1 15.3367 4.60185 184.284
1 16.5999 6.746 185.681
1 16.6166 6.71242 182.664
1 13.1592 10.0952 181.351
1 14.1546 7.44363 181.281
1 15.8269 9.26566 182.77
1 7.48838 18.3572 131.139
1 15.5747 9.30275 179.882
1 12.4103 12.8732 178.412
1 7.42917 18.6049 134.404
1 13.1577 10.0137 178.474
1 14.8017 12.1479 179.58
1 14.8026 12.2271 176.777
1 11.4275 15.5473 175.428
1 12.2992 12.7409 175.422
1 13.7295 14.8124 176.868
1 13.7271 14.8528 173.981
1 34.4407 7.39419 69.4974
1 8.88494 4.1705 70.9967
1 9.16423 3.9765 73.8733
1 6.81894 4.73443 72.6059
1 10.2511 18.1895 172.413
1 11.3309 15.4641 172.388
1 12.7039 17.5114 173.926
1 12.7721 17.5367 170.861
1 10.4519 18.2434 169.718
1 7.48945 18.4639 137.121
1 11.7353 20.3415 171.105
1 11.61 20.3631 168.283
1 7.33768 18.398 140.045
1 16.3335 26.3547 184.254
1 18.7399 25.4393 185.678
1 18.5863 25.4545 182.913
1 15.2284 4.51353 181.39
1 16.1505 26.1436 181.388
1 17.6778 3.8659 182.682
1 17.5854 4.04456 179.682
1 14.0401 7.25618 178.272
1 7.73472 16.4334 26.8659
1 15.197 4.62957 178.287
1 9.02795 14.3397 28.4401
1 9.03101 14.1737 25.4503
1 8.47762 19.1277 24.0335
1 7.47279 16.336 24.0019
1 10.0873 17.0285 25.4224
1 9.92274 17.1093 22.5602
1 7.21784 18.3179 143.138
1 9.52286 21.7036 21.0764
1 16.4964 6.65828 179.912
1 7.45478 18.2476 146.013
1 30.7374 6.39893 92.9136
1 33.2412 5.61252 94.225
1 33.0776 5.71792 91.5517
1 16.7183 6.73273 176.844
1 30.8814 6.32153 89.8367
1 32.1049 8.26837 91.3591
1 31.9837 8.23369 88.4358
1 8.63143 19.0174 21.2251
1 10.8538 19.8945 22.6922
1 10.956 19.8016 19.682
1 13.2792 10.1405 175.489
1 9.4984 21.8897 18.1721
1 11.7468 22.5486 19.6081
1 11.8909 22.6271 16.5716
1 14.2465 7.4661 175.394
1 15.5584 9.43809 176.997
1 7.60791 18.1343 149.108
1 15.6535 9.44373 174.091
1 12.2874 12.7663 172.514
1 7.33212 18.1579 151.823
1 13.286 10.0624 172.507
1 14.7844 12.1339 173.865
1 14.647 12.2415 171.156
1 11.215 15.574 169.639
1 12.1938 12.7998 169.537
1 13.7908 14.9147 170.967
1 13.7452 14.802 167.973
1 10.2545 18.4183 166.575
1 11.2228 15.5528 166.6
1 12.6353 17.6697 167.946
1 12.7343 17.5776 165.199
1 10.4359 18.4675 163.702
1 12.0672 20.3181 165.127
1 11.9248 20.2622 162.197
1 16.1661 26.4139 178.355
1 18.3012 25.7248 179.93
1 7.24572 18.1616 154.718
1 18.5905 25.6399 176.826
1 15.1203 4.55931 175.357
1 7.43685 18.2512 157.666
1 15.9501 26.3508 175.423
1 17.5279 4.0115 176.74
1 17.57 3.88525 173.776
1 14.1792 7.3952 172.462
1 15.2372 4.78945 172.435
1 16.5619 6.6341 173.933
1 16.7762 6.66388 171.062
1 13.2141 10.1692 169.52
1 14.1278 7.45817 169.555
1 15.694 9.41321 170.98
1 15.5349 9.63327 168.071
1 12.2391 12.9658 166.524
1 6.06107 12.4367 67.8872
1 6.19536 12.4226 70.8169
1 33.3861 10.2438 69.3114
1 13.4173 10.1674 166.607
1 7.4823 18.0925 160.835
1 6.92678 9.65999 70.7854
1 14.668 12.2015 168.172
1 7.60909 18.1552 163.778
1 14.4955 12.3719 165.162
1 11.2206 15.714 163.592
1 12.0536 12.8543 163.493
1 13.4515 14.8822 164.908
1 13.6337 14.9457 162.04
1 10.3333 18.4886 160.604
1 11.273 15.572 160.734
1 7.06959 9.55649 73.8663
1 7.66823 16.5644 20.9916
1 34.5058 7.41238 72.3933
1 9.07339 14.4912 22.4323
1 8.90172 14.454 19.3905
1 8.33061 19.2951 18.1088
1 7.50622 16.5526 18.2182
1 9.96492 17.0765 19.5533
1 9.84098 17.3441 16.4706
1 7.44284 18.2801 166.815
1 9.55477 21.8533 15.1722
1 12.8008 17.8169 162.458
1 7.34561 18.1076 169.651
1 12.5403 17.7417 159.246
1 10.1086 18.3891 157.757
1 11.8863 20.3122 158.966
1 11.8503 20.5642 156.06
1 16.0252 26.3555 172.292
1 18.5439 25.7321 173.826
1 18.5443 25.7672 170.96
1 8.38666 19.3724 14.9972
1 10.9613 19.95 16.6645
1 10.9305 20.037 13.6831
1 15.0473 4.74898 169.591
1 9.52562 21.9461 12.1849
1 11.8534 22.4531 13.8453
1 11.949 22.5871 10.6096
1 16.0754 26.4917 169.378
1 17.592 4.03262 170.915
1 8.86511 20.142 171.24
1 17.3609 4.00026 167.984
1 14.2121 7.5908 166.501
1 7.28304 18.1464 172.394
1 15.1711 4.86367 166.581
1 16.5217 6.82551 168.164
1 16.6867 6.79331 165.232
1 13.3062 10.2566 163.646
1 30.7283 6.06612 87.0303
1 33.2604 5.37363 88.5139
1 33.0005 5.45808 85.6222
1 14.3152 7.43614 163.597
1 15.7709 9.48521 165.153
1 15.6109 9.44136 162.234
1 12.2372 12.9009 160.66
1 13.3946 10.2113 160.629
1 14.6264 12.242 162.357
1 14.8322 12.3025 159.256
1 11.204 15.5853 157.824
1 12.1798 12.9343 157.727
1 7.51927 17.9897 175.431
1 13.7747 14.8666 159.142
1 13.639 15.1799 156.318
1 7.59674 18.0743 178.405
1 10.2133 18.3725 154.929
1 11.2017 15.6188 154.939
1 12.5995 17.8583 156.466
1 12.7124 17.5902 153.556
1 10.2476 18.3168 151.687
1 11.8777 20.2421 153.219
1 11.9612 20.3492 150.53
1 33.6252 10.4953 72.3908
1 8.22091 6.81272 73.8756
1 8.09203 7.04052 77.0436
1 6.87487 4.85988 75.4125
1 34.5564 7.5565 75.3104
1 9.17111 4.224 76.9733
1 8.96362 4.19257 79.7817
1 6.63397 4.9197 78.2937
1 6.26223 12.1535 156.108
1 7.47997 18.2334 181.342
1 6.14963 12.2262 159.208
1 16.1092 26.4731 166.472
1 7.54275 18.1263 184.238
1 33.5247 10.118 157.703
1 18.5505 25.7944 168.158
1 30.5922 5.95238 84.1505
1 32.0339 8.16719 85.4961
1 32.0218 7.96184 82.433
1 18.4983 25.8059 164.971
1 15.155 4.75963 163.676
1 15.9518 26.4246 163.675
1 7.52111 16.7075 14.9668
1 17.6381 4.09235 165.186
1 8.76795 14.7761 16.3671
1 8.89878 14.5629 13.4311
1 8.4993 19.4157 12.1131
1 7.42049 16.8929 12.1118
1 9.92247 17.1971 13.6247
1 9.91982 17.2072 10.7562
1 7.62754 18.2094 187.261
1 9.39608 22.0103 9.38204
1 17.6105 3.92539 162.326
1 7.40091 18.2026 190.132
1 14.3781 7.4141 160.652
1 15.3172 4.75781 160.718
1 16.697 6.71541 162.193
1 16.6844 6.55809 159.152
1 13.3033 10.2983 157.803
1 14.1988 7.55722 157.792
1 15.7296 9.41812 159.127
1 8.38354 19.3092 9.39599
1 10.8543 20.068 10.639
1 10.9034 19.9033 7.75544
1 15.7519 9.40597 156.406
1 9.45723 21.8075 6.2973
1 11.7877 22.4136 7.81396
1 11.8769 22.4353 4.70772
1 12.2755 13.0192 154.799
1 13.2839 10.2527 154.794
1 7.62604 18.1471 192.99
1 14.5687 12.4161 156.376
1 14.7266 12.3054 153.511
1 34.475 15.8609 200.574
1 11.5107 15.6774 151.891
1 12.4294 13.0232 151.956
1 13.8946 15.0417 153.363
1 13.7534 15.137 150.382
1 10.3091 18.5004 148.733
1 11.2809 15.7701 148.791
1 12.857 17.7567 150.552
1 12.7082 17.7796 147.495
1 10.4877 18.3781 145.933
1 11.9876 20.48 147.343
1 11.909 20.3353 144.41
1 6.8589 9.63711 159.157
1 7.10745 9.65912 162.019
1 16.1304 26.4483 160.839
1 34.4409 7.45603 160.744
1 18.5749 25.8089 162.175
1 9.41272 8.41586 201.944
1 18.5538 25.7403 159.363
1 15.1234 4.62628 157.928
1 9.50781 6.51967 204.432
1 16.2546 26.2479 157.857
1 17.6387 3.97388 159.189
1 17.5667 3.89273 156.276
1 14.345 7.50083 154.811
1 15.1936 4.44831 154.754
1 16.482 6.53948 156.336
1 16.6046 6.62215 153.428
1 13.4497 10.5013 151.809
1 14.4002 7.69976 151.806
1 15.6056 9.64219 153.32
1 15.9944 9.84827 150.42
1 12.4145 13.1956 149.215
1 6.18832 12.5159 73.7815
1 6.26844 12.2726 76.69
1 7.54451 16.5396 9.11131
1 33.6222 10.4013 75.2021
1 11.4292 6.37966 208.813
1 8.97455 14.5691 10.6697
1 13.5595 10.4362 148.847
1 7.08715 5.50551 206.027
1 14.9002 12.4885 150.529
1 14.6854 12.5042 147.488
1 11.2774 15.6983 145.828
1 12.467 13.0125 145.861
1 13.7456 15.088 147.42
1 13.7552 15.0757 144.566
1 10.4925 18.351 142.754
1 8.76873 14.5274 7.60758
1 8.29689 19.2748 6.28616
1 7.49954 16.6726 6.08561
1 9.96344 17.1269 7.75163
1 9.93893 17.1268 4.92811
1 9.44024 21.8816 3.48583
1 8.50133 19.1056 3.44662
1 10.909 19.8274 4.84094
1 10.9699 19.8699 1.90922
1 11.8505 6.44085 211.925
1 11.4461 15.8131 142.985
1 12.8378 17.6677 144.326
1 11.5827 6.32337 214.907
1 12.8754 17.9102 141.351
1 10.5209 18.3563 139.856
1 30.6473 5.90838 81.0656
1 33.0786 5.4918 82.691
1 33.052 5.45089 79.6553
1 11.9362 20.5111 141.509
1 30.7609 6.04138 78.2712
1 9.42044 21.8433 0.557917
1 11.9928 22.6203 1.92799
1 11.9357 22.6126 229.856
1 12.0431 20.1908 138.551
1 33.3745 9.96684 160.728
1 7.08795 9.54011 76.7138
1 7.03699 9.59524 79.724
1 34.2612 7.45516 78.3037
1 33.3962 10.1646 78.1054
1 11.5107 6.41726 217.743
1 8.07781 7.02722 79.811
1 31.894 8.1189 79.6598
1 11.5939 6.4726 220.788
1 32.0289 8.07109 76.6904
1 8.04417 6.92879 162.196
1 7.98027 6.67117 165.141
1 16.2176 26.0226 154.959
1 6.67335 4.69298 163.274
1 18.7242 25.7417 156.299
1 8.03222 6.68024 82.5325
1 6.54707 4.91347 80.9885
1 34.4003 7.49612 81.2134
1 9.11195 4.1326 82.6357
1 9.22447 4.19056 85.4641
1 7.34236 16.594 3.29589
1 6.70824 4.95575 84.1084
1 8.85244 14.6791 4.76021
1 8.93171 14.5301 1.83044
1 11.721 6.22167 223.702
1 8.56962 19.1089 0.652749
1 18.5746 25.5498 153.405
1 11.7273 6.46355 227.022
1 15.406 4.74028 151.739
1 16.2423 26.3916 151.658
1 7.67884 16.502 0.323799
1 10.1574 17.1676 2.07016
1 9.93837 17.0864 229.874
1 10.8825 19.7393 229.805
1 17.6438 3.90601 153.28
1 17.7711 4.01134 150.363
1 14.5544 7.81084 148.822
1 15.3879 4.72792 148.873
1 16.5155 6.75308 150.347
1 11.5057 6.93264 229.608
1 16.7748 7.00171 147.354
1 13.256 10.4927 146.001
1 14.2596 7.65708 146.067
1 15.7936 9.63428 147.21
1 15.6418 9.66311 144.614
1 12.3596 12.8957 143.109
1 9.06934 14.3418 229.773
1 13.4018 10.2365 143.162
1 14.8852 12.4371 144.528
1 6.12835 12.1534 79.7502
1 6.21755 12.0363 82.7672
1 14.6622 12.2853 141.474
1 11.3604 15.6883 140.004
1 12.3794 12.9811 140.055
1 13.809 14.8683 141.633
1 13.7095 14.8977 138.609
1 10.3592 18.3852 136.975
1 11.5042 15.7975 136.812
1 12.9918 17.632 138.598
1 12.7796 17.7237 135.634
1 10.4061 18.4309 134.042
1 12.1463 20.1667 135.737
1 12.0748 20.2475 132.703
1 34.3348 7.44397 163.505
1 9.0796 4.21144 164.932
1 9.07606 4.08145 167.961
1 16.2496 26.6463 148.861
1 8.87136 10.5379 229.777
1 7.93437 7.8623 229.64
1 7.81501 7.89154 1.52968
1 34.3133 7.1191 0.235362
1 6.33018 9.81418 0.340692
1 6.54976 4.68753 166.465
1 18.7381 25.7372 150.448
1 18.7584 25.8154 147.383
1 34.2953 7.27954 3.26662
1 15.2154 4.81985 145.943
1 16.3353 26.4814 145.839
1 17.7882 4.18799 147.433
1 17.7297 4.00248 144.396
1 14.4781 7.46927 143.06
1 15.3595 4.83296 143.19
1 16.9207 6.79249 144.679
1 16.7565 6.90697 141.645
1 13.6531 10.2466 140.005
1 14.4362 7.51576 140.083
1 30.7563 6.13205 75.2217
1 15.8365 9.41569 141.54
1 15.8941 9.60218 138.604
1 12.4298 13.0055 137.095
1 7.45525 12.5336 0.474461
1 13.325 10.2006 137.071
1 8.69392 10.5191 1.8729
1 8.94479 10.3231 4.62614
1 6.39289 9.89436 3.22158
1 7.30763 12.4954 3.43188
1 7.87864 7.85105 4.76375
1 7.93125 7.78858 7.62868
1 34.3671 7.27499 6.33816
1 6.58467 9.84332 6.28289
1 33.084 5.56956 76.6956
1 33.3005 5.47957 73.9485
1 14.9702 12.3163 138.571
1 34.4149 6.83589 9.16397
1 30.777 6.18731 72.3432
1 32.1967 8.06655 73.9082
1 14.8557 12.2956 135.565
1 11.5177 15.5364 133.981
1 12.5333 12.9053 134.052
1 13.9159 14.9399 135.575
1 14.1486 15.11 132.605
1 10.4059 18.4385 131.215
1 11.502 15.8602 131.321
1 12.9404 17.7578 132.597
1 12.7603 17.8553 129.734
1 10.2777 18.4056 128.165
1 14.4668 23.1214 228.504
1 16.6673 23.9421 226.842
1 11.842 20.3616 129.912
1 12.0584 20.4357 127.063
1 16.3178 26.5801 142.902
1 18.5887 25.7334 144.5
1 18.6349 25.7094 141.477
1 15.3422 4.89649 140.143
1 16.2313 2.27088 139.997
1 17.7112 4.17591 141.461
1 7.50262 12.4224 6.2099
1 17.6289 4.29961 138.523
1 8.98064 10.2831 7.73208
1 8.96293 10.3312 10.7952
1 6.57453 9.66391 9.13013
1 7.43707 12.4903 9.0554
1 7.94416 7.60388 10.6631
1 7.86149 7.81125 13.5659
1 34.3523 7.16799 12.2073
1 6.50963 9.65925 12.043
1 14.2661 7.582 137.198
1 32.2047 8.25701 70.9821
1 15.2327 4.76859 137.12
1 34.3129 7.10845 15.1308
1 16.7581 6.8587 138.711
1 16.5904 6.76447 135.735
1 13.2476 10.3639 134.255
1 14.2244 7.51146 134.312
1 15.8811 9.67266 135.729
1 15.7786 9.67115 132.829
1 12.5207 13.1809 131.147
1 13.2139 10.3122 131.174
1 14.6807 12.354 132.562
1 14.697 12.2887 129.598
1 11.3984 15.9486 128.168
1 13.2181 20.5454 228.35
1 12.3298 17.9207 228.21
1 14.7933 18.5286 226.693
1 14.2159 23.267 225.246
1 13.1394 20.6756 225.481
1 15.6582 21.2475 227.044
1 15.6731 21.455 224
1 12.2938 13.0823 128.308
1 14.1058 23.3394 222.507
1 16.5302 24.071 223.881
1 16.7477 24.0115 220.958
1 13.7127 15.1142 129.677
1 13.7573 14.9154 126.685
1 10.3922 18.4383 125.6
1 11.3069 15.8052 125.216
1 7.46799 12.3976 11.9743
1 12.8116 17.8111 126.619
1 8.92413 10.3752 13.769
1 8.88611 10.2995 16.4898
1 6.31109 9.64291 15.0094
1 7.49158 12.5744 15.0527
1 7.96018 7.66487 16.6146
1 8.00217 7.81523 19.2995
1 34.31 7.16859 18.0196
1 6.47137 9.83295 18.0016
1 12.7696 17.848 123.766
1 10.1878 18.7331 122.552
1 11.848 20.4528 123.93
1 34.5528 7.27699 20.8579
1 11.7441 20.6231 121.012
1 16.2973 26.6506 137.051
1 18.6645 25.7381 138.58
1 18.6698 25.8788 135.725
1 15.318 4.75799 134.224
1 16.2209 26.5344 134.087
1 17.6769 4.09455 135.693
1 17.5388 4.10593 132.701
1 14.204 7.6998 131.287
1 15.073 4.83634 131.354
1 16.6991 7.07573 132.89
1 16.6695 6.95715 129.842
1 13.2775 10.253 128.141
1 14.2954 7.59585 128.221
1 15.655 9.52527 129.756
1 11.4368 15.3032 228.302
1 10.3496 12.3668 228.398
1 12.7879 13.2243 226.735
1 12.5168 17.8958 225.224
1 11.707 15.1729 225.332
1 13.9255 15.8612 226.783
1 14.0043 15.9969 223.655
1 13.3332 20.682 222.388
1 12.458 18.0686 222.412
1 14.9441 18.7373 223.905
1 14.7786 18.625 220.901
1 7.52925 12.457 17.8503
1 14.3487 23.242 219.596
1 8.99725 10.462 19.5223
1 8.99712 10.3866 22.4525
1 6.57784 9.79801 20.9098
1 7.58693 12.4939 21.0164
1 7.94904 7.78713 22.325
1 7.75942 7.78333 25.4258
1 34.3577 7.00555 23.8063
1 6.73336 9.67235 23.8434
1 15.7996 9.61645 126.744
1 30.8913 6.37992 69.5855
1 33.2294 5.52876 71.1498
1 34.3333 6.99839 26.96
1 12.4488 12.9676 125.213
1 13.3464 10.2059 125.34
1 14.7077 12.2563 126.743
1 14.8404 12.1723 123.822
1 11.3103 15.8101 122.405
1 12.4591 13.0483 122.36
1 13.5458 15.1239 123.81
1 13.7446 15.1158 120.875
1 10.2934 18.7897 119.328
1 11.4344 15.9508 119.524
1 33.1378 5.7219 68.0374
1 13.472 20.6776 219.48
1 15.8331 21.4383 220.878
1 15.7042 21.2726 217.897
1 12.6197 17.9414 120.877
1 14.376 23.6063 216.555
1 16.6385 24.0332 218.036
1 16.6129 24.0623 214.996
1 12.9161 17.7983 117.946
1 10.6124 18.5443 116.581
1 11.6597 20.6547 118.206
1 11.8555 20.583 115.154
1 16.1071 26.5093 131.291
1 18.6651 25.8419 132.923
1 18.5001 25.8854 129.928
1 15.315 4.9235 128.426
1 7.5216 12.5688 23.858
1 16.2698 26.3612 128.27
1 9.0321 10.4885 25.4339
1 9.22148 10.2497 28.2466
1 6.60569 9.63772 26.8601
1 7.45826 12.3447 27.005
1 8.002 7.74502 28.4239
1 8.14754 7.77217 31.3059
1 34.4152 7.00934 29.74
1 6.63818 9.55475 29.7009
1 17.6016 4.13219 129.799
1 31.956 8.20387 67.8077
1 33.5436 10.3301 66.6355
1 34.285 6.8837 32.7842
1 31.9702 8.19723 64.9507
1 17.6687 4.14106 126.932
1 14.38 7.38601 125.562
1 15.2516 4.54814 125.452
1 16.7204 6.89731 126.881
1 16.5398 6.92999 124.047
1 13.326 10.2732 122.292
1 14.3088 7.32343 122.502
1 15.7233 9.61268 123.885
1 15.7572 9.59312 120.844
1 12.4884 13.0627 119.429
1 33.4227 10.1361 81.1158
1 13.3892 10.1369 119.488
1 7.06726 9.48075 82.5527
1 10.4261 12.4118 225.265
1 7.18535 9.5648 85.4913
1 11.9046 10.3283 226.721
1 11.8814 10.3444 223.885
1 11.4888 15.2325 222.398
1 10.626 12.5558 222.383
1 12.9143 13.0797 223.846
1 12.8976 12.9356 220.811
1 12.4788 17.972 219.483
1 11.4085 15.2803 219.45
1 13.755 15.5759 220.916
1 13.83 15.8766 217.901
1 7.47748 12.4022 29.8231
1 13.2282 20.8102 216.603
1 8.85233 10.4469 31.1755
1 8.7636 10.3819 34.2081
1 6.45431 9.64899 32.5945
1 7.35916 12.2824 32.7426
1 7.82806 7.78974 34.3001
1 7.81898 7.94851 37.2447
1 34.392 7.12215 35.6129
1 6.18728 9.79269 35.72
1 14.7706 12.5054 120.718
1 14.9029 12.1268 117.916
1 11.3027 15.9013 116.564
1 34.2289 7.06824 38.6209
1 12.506 13.1008 116.505
1 13.7849 15.1337 117.935
1 13.8929 15.1704 115.083
1 10.2715 18.4214 113.786
1 11.4388 15.8429 113.56
1 12.8148 17.8699 114.992
1 12.7693 17.9699 112.053
1 10.4921 18.6207 110.488
1 12.0513 20.4348 112.281
1 12.0655 20.7098 109.332
1 6.16772 12.1955 162.161
1 12.3139 17.9444 216.608
1 14.7128 18.5661 218.018
1 14.5584 18.8394 214.973
1 14.1455 23.4937 213.62
1 13.0424 20.9877 213.677
1 15.5531 21.474 214.897
1 15.4547 21.4248 211.999
1 7.46 14.3611 166.621
1 14.0035 23.4409 210.931
1 16.3288 24.072 212.205
1 15.2866 21.6538 209.175
1 16.1408 26.2633 125.514
1 5.98553 12.112 164.991
1 18.6546 25.8046 126.823
1 18.4529 25.8939 124.039
1 7.54871 12.4297 35.6782
1 15.1883 4.76928 122.429
1 9.11796 10.4589 37.0016
1 8.84412 10.1628 40.016
1 6.35761 9.74044 38.4135
1 7.67483 12.4178 38.6124
1 7.73784 7.70744 40.0974
1 6.72688 9.54477 44.4881
1 34.0478 7.18185 41.3859
1 6.42117 9.73596 41.5152
1 16.2535 26.5798 122.438
1 17.5253 4.12041 124.028
1 17.6015 4.15614 120.946
1 33.1811 8.98932 46.0294
1 14.2279 7.51504 119.357
1 15.2228 4.87698 119.581
1 16.7075 6.78844 121.073
1 16.7624 6.92759 118.089
1 13.4787 10.2909 116.387
1 14.3691 7.65452 116.381
1 15.7945 9.59426 118.009
1 15.8 9.67515 114.899
1 12.5932 13.1497 113.447
1 13.3571 10.287 113.564
1 30.6068 6.06519 66.5239
1 14.9778 12.3508 115.004
1 14.7766 12.4292 112.193
1 11.3764 15.9021 110.57
1 12.3626 13.106 110.495
1 34.5485 7.48114 84.0932
1 33.2358 10.2469 83.9228
1 8.10362 6.75452 85.584
1 8.17995 6.85414 88.3065
1 6.58594 4.98424 86.8716
1 34.3851 7.50921 86.8783
1 9.01721 4.37382 88.4987
1 10.6526 12.4259 219.187
1 9.11568 4.32773 91.3822
1 11.9593 10.3818 221.008
1 11.8135 10.2104 217.675
1 7.54082 12.3786 41.5376
1 11.2501 15.2948 216.589
1 7.56204 12.2958 44.57
1 7.61692 12.1048 47.5485
1 34.1869 11.6375 45.9516
1 6.22586 14.4408 45.9936
1 6.71341 9.49155 47.4167
1 6.54436 9.22565 50.2466
1 33.0073 8.81876 48.8124
1 34.0921 11.3675 48.941
1 33.1914 5.60742 65.0205
1 33.1759 5.68447 62.2311
1 13.6257 15.0853 112.068
1 33.0515 8.51214 51.7799
1 30.6899 6.32787 63.4427
1 31.9557 8.31158 61.9127
1 8.9763 16.4627 62.0829
1 13.9426 15.3295 109.11
1 10.484 18.6191 107.646
1 11.5348 16.0745 107.715
1 12.9329 17.9434 109.212
1 12.785 17.9248 106.09
1 10.4446 18.5401 104.65
1 11.9112 20.4695 106.211
1 11.8104 20.5359 103.381
1 10.437 12.6716 216.356
1 12.7446 13.189 217.897
1 12.6928 13.3087 214.971
1 12.2248 18.1486 213.667
1 11.2638 15.3237 213.766
1 13.6071 15.9186 215.034
1 13.7569 16.1509 212.077
1 12.8628 20.7467 210.909
1 12.1926 18.0057 210.708
1 14.5626 18.9481 212.192
1 15.8279 16.8788 210.438
1 13.0056 21.1711 207.523
1 14.532 19.0665 209.186
1 17.0795 19.4951 210.518
1 15.484 17.4665 207.348
1 6.04755 14.0948 49.1656
1 6.99623 9.39692 165.089
1 7.70764 11.8816 50.6216
1 5.94603 13.6399 55.562
1 34.0389 11.0434 52.0054
1 6.13909 18.1381 51.7076
1 6.62686 9.2149 53.1982
1 6.79586 8.80853 56.1154
1 32.8107 8.41731 55.2028
1 34.3713 10.8017 54.936
1 7.08368 9.48453 168.056