LAMMPS (29 Aug 2024 - Update 1)
OMP_NUM_THREADS environment is not set. Defaulting to 1 thread. (src/comm.cpp:98)
  using 1 OpenMP thread(s) per MPI task
units metal
atom_style atomic
boundary p p p

lattice fcc 4.07 origin 0 0 0 orient z 1 1 0 orient x 0 0 -1 orient y -1 1 0
Lattice spacing in x,y,z = 4.07 5.7558492 5.7558492
region box block 0 10 0 5 0 40 units lattice side in
create_box 1 box
Created orthogonal box = (0 0 0) to (40.7 28.779246 230.23397)
  1 by 1 by 1 MPI processor grid
create_atoms 1 box
Created 16000 atoms
  using lattice units in orthogonal box = (0 0 0) to (40.7 28.779246 230.23397)
  create_atoms CPU = 0.003 seconds

region 1 prism 5.1 10.0 0 5 -1 1000 10 0 0
region 2 prism -1.0 4.9 0 5 -1 1000 -10 0 0
region 3 prism 14.9 20.0 0 5 -1 1000 -10 0 0
region 4 prism -20.0 -4.5 0 5 -1 1000 10 0 0

group del1 region 1
1600 atoms in group del1
group del2 region 2
2000 atoms in group del2
group del3 region 3
2000 atoms in group del3
group del4 region 4
2400 atoms in group del4

delete_atoms group del1
Deleted 1600 atoms, new total = 14400
delete_atoms group del2
Deleted 2000 atoms, new total = 12400
delete_atoms group del3
Deleted 2000 atoms, new total = 10400
delete_atoms group del4
Deleted 2400 atoms, new total = 8000

pair_style eam
pair_coeff * * au_u3.eam
Reading eam potential file au_u3.eam with DATE: 2007-06-11
neighbor 1.5 bin
neigh_modify every 1 delay 1

velocity all create 300 87654321 dist gaussian
velocity all zero linear
velocity all zero angular

thermo 200
thermo_style custom step atoms temp pe lx ly lz pzz press
thermo_modify lost warn norm yes flush yes

timestep 0.005

dump 1 all custom 100 pos.dump id type x y z

fix 1 all npt temp 300.0 300.0 10.0 aniso 0.0 0.0 10.0 drag 1.0
run 20000
Neighbor list info ...
  update: every = 1 steps, delay = 1 steps, check = yes
  max neighbors/atom: 2000, page size: 100000
  master list distance cutoff = 7.05
  ghost atom cutoff = 7.05
  binsize = 3.525, bins = 12 9 66
  1 neighbor lists, perpetual/occasional/extra = 1 0 0
  (1) pair eam, perpetual
      attributes: half, newton on
      pair build: half/bin/atomonly/newton
      stencil: half/bin/3d
      bin: standard
Per MPI rank memory allocation (min/avg/max) = 4.37 | 4.37 | 4.37 Mbytes
   Step        Atoms         Temp          PotEng           Lx             Ly             Lz            Pzz           Press     
         0        8000   299.95551     -3.7847507      40.7           28.779246      230.23397     -18244.824     -14819.138    
       200        8000   184.85176     -3.7711938      40.387639      28.563237      227.35745      7852.6833      3471.4016    
       400        8000   198.27764     -3.7739454      40.565937      28.262645      229.91554     -1067.0413     -613.89338    
       600        8000   193.97055     -3.7735181      40.601097      28.055764      229.20476     -1806.6722     -1842.324     
       800        8000   202.16542     -3.7746197      40.597314      27.823661      228.52744      2096.5925      1014.754     
      1000        8000   215.80727     -3.7767555      40.542732      27.505689      228.6619       687.88871     -251.96174    
      1200        8000   220.76271     -3.7778681      40.501599      27.155807      228.96597      1563.2009      368.61112    
      1400        8000   218.58862     -3.7785078      40.522517      26.747555      229.13798      312.67794     -564.95524    
      1600        8000   213.28597     -3.778429       40.55396       26.362702      228.95268      1091.5964      437.03028    
      1800        8000   219.81181     -3.7794495      40.58548       26.079727      228.83705      585.06265      176.27363    
      2000        8000   220.7387      -3.7794291      40.60439       25.880972      228.72067     -246.30307     -116.91571    
      2200        8000   223.45449     -3.7795533      40.518661      25.798668      228.44099      408.14292      335.14128    
      2400        8000   226.09459     -3.7797595      40.350782      25.778193      228.1583       121.07936     -350.28463    
      2600        8000   229.69218     -3.7800679      40.10007       25.69795       228.06089      526.55934      180.30886    
      2800        8000   230.01674     -3.780087       39.859067      25.588274      227.96001     -353.77334     -582.37128    
      3000        8000   235.50912     -3.7806955      39.585518      25.482937      227.59683      47.513302     -289.65296    
      3200        8000   237.32187     -3.7808926      39.280604      25.405989      227.29349     -231.7622      -477.54934    
      3400        8000   241.92602     -3.7814046      38.995663      25.332358      226.80108     -393.04342     -431.25715    
      3600        8000   241.82578     -3.7813275      38.716685      25.269466      226.22661      441.41314     -173.23427    
      3800        8000   246.59687     -3.7819258      38.41992       25.216079      225.94415     -320.7731      -749.20252    
      4000        8000   253.04609     -3.782685       38.100157      25.17296       225.78505      140.51899     -326.31907    
      4200        8000   249.9314      -3.7822192      37.849809      25.093147      225.57774     -309.06994     -552.20661    
      4400        8000   254.465       -3.7826661      37.65486       24.981475      225.22021      261.89572      29.762711    
      4600        8000   255.10639     -3.7826118      37.446574      24.931935      225.18211      1021.1233      931.58666    
      4800        8000   258.14621     -3.7828994      37.221126      24.956016      225.19342      727.61122      640.64236    
      5000        8000   260.28663     -3.7830282      37.012073      25.007027      225.11435      284.57048      402.98552    
      5200        8000   260.93406     -3.7829448      36.84657       25.007513      224.80925      675.12261      534.19534    
      5400        8000   262.085       -3.7829483      36.71309       24.961467      224.56736      516.36936     -115.87212    
      5600        8000   265.42441     -3.7832582      36.507558      24.929573      224.79076     -607.20012     -474.09276    
      5800        8000   264.97047     -3.7831174      36.264956      24.944551      224.62208      381.28738      112.92033    
      6000        8000   268.52713     -3.7834415      36.071198      24.959059      224.54786     -48.268776     -249.96491    
      6200        8000   269.90076     -3.7834733      35.903998      24.954719      224.74948      84.60107      -390.76839    
      6400        8000   273.0843      -3.7837644      35.741392      24.945159      225.13426      68.280681     -179.87334    
      6600        8000   274.24538     -3.7837878      35.577363      24.935037      225.50758      245.86498      99.466395    
      6800        8000   276.09232     -3.7839178      35.400227      24.909232      225.7282       604.71469      535.70045    
      7000        8000   276.25732     -3.7838203      35.234744      24.876441      225.72135     -119.50086      53.302147    
      7200        8000   275.66245     -3.7836265      35.079826      24.858129      225.625        619.57977      360.01424    
      7400        8000   280.18173     -3.7841499      34.884967      24.860239      225.80386      469.12841      107.18368    
      7600        8000   285.11994     -3.7847566      34.642714      24.86984       226.03475     -809.45566     -946.43262    
      7800        8000   288.02989     -3.7851887      34.353589      24.847081      225.87379      475.79736     -351.60258    
      8000        8000   293.19218     -3.7858716      34.086426      24.827718      226.19649     -349.69249     -848.84223    
      8200        8000   293.16763     -3.7859009      33.823723      24.82052       226.53675      133.04466     -41.171842    
      8400        8000   297.50365     -3.7864968      33.574174      24.812842      226.61049      149.7177      -548.62236    
      8600        8000   315.83387     -3.7893025      33.233354      24.774485      226.21945     -721.73706     -1651.3797    
      8800        8000   326.02679     -3.791478       32.749528      24.751713      225.81557      290.3125      -1379.0637    
      9000        8000   339.31904     -3.7937579      32.343107      24.750379      226.18214      973.6931      -526.1956     
      9200        8000   337.76359     -3.7940555      32.020349      24.758053      226.89024      841.78141     -502.93286    
      9400        8000   339.57168     -3.7946765      31.785296      24.774757      227.77387     -409.15856     -722.03001    
      9600        8000   336.2253      -3.7946159      31.557251      24.827008      228.08036     -248.41594     -619.42223    
      9800        8000   343.93431     -3.7959041      31.398184      24.831752      228.27996     -99.411096     -408.17451    
     10000        8000   349.2262      -3.7969173      31.214934      24.820056      228.47408     -471.57656     -672.54417    
     10200        8000   359.05525     -3.7987367      30.961129      24.811557      228.17475     -1704.2457     -1926.7648    
     10400        8000   361.46341     -3.7997383      30.614037      24.772369      227.49225      1128.4556     -254.67825    
     10600        8000   360.8517      -3.8000445      30.403528      24.770236      228.04166     -10.908802     -531.09594    
     10800        8000   363.69858     -3.800762       30.277666      24.803387      228.58669     -874.40668     -229.05274    
     11000        8000   362.80648     -3.8010101      30.175702      24.873364      228.35915     -363.34909     -324.72466    
     11200        8000   361.16321     -3.801126       30.101948      24.901366      228.01403      1005.3251      256.92621    
     11400        8000   362.994       -3.801721       30.071263      24.881396      228.50811     -559.49275     -650.25309    
     11600        8000   362.55044     -3.8019953      30.038714      24.840758      228.85369     -1318.7646     -711.90646    
     11800        8000   367.37517     -3.8029696      30.018972      24.829852      228.48129      179.30238      162.76636    
     12000        8000   361.79001     -3.8025934      30.041936      24.82005       228.26823     -1176.0342     -845.01575    
     12200        8000   359.74763     -3.8026774      30.049722      24.809681      227.82147     -914.06833     -732.08421    
     12400        8000   365.55318     -3.8037661      30.028332      24.820014      227.49932      60.109083     -318.17117    
     12600        8000   365.17411     -3.8040571      29.977972      24.836856      227.59233     -248.10721      208.21121    
     12800        8000   357.43772     -3.8034021      29.954418      24.86782       227.55902     -83.767662     -189.8251     
     13000        8000   360.1465      -3.8040944      29.90715       24.873225      227.48188      489.35217     -119.23637    
     13200        8000   362.54311     -3.8047741      29.822058      24.832474      227.70782      237.83647      345.86288    
     13400        8000   366.29662     -3.8055865      29.742588      24.787546      227.83066     -276.37963     -377.09473    
     13600        8000   360.88863     -3.8052399      29.688991      24.767793      227.9155       242.96583     -102.22922    
     13800        8000   361.73247     -3.8057731      29.539308      24.732438      227.78546      297.4892      -612.07033    
     14000        8000   363.48164     -3.8064586      29.336298      24.643898      228.01313      94.431276     -935.83418    
     14200        8000   372.56741     -3.8081714      29.157221      24.517446      228.29702     -2169.3465     -2053.8425    
     14400        8000   376.85532     -3.8096695      28.818853      24.414963      227.14284      3724.0869      2175.5593    
     14600        8000   376.7782      -3.8100509      28.748996      24.397419      227.9317      -226.21217      420.50494    
     14800        8000   378.29073     -3.8106414      28.697242      24.395208      228.19801      1834.502       2364.1311    
     15000        8000   375.70907     -3.810779       28.681424      24.47535       228.21042     -1648.0754     -1119.5851    
     15200        8000   377.24912     -3.8113835      28.646008      24.440481      227.45222      969.55038      873.41274    
     15400        8000   377.34882     -3.8118159      28.735281      24.390891      227.56203      133.87814      159.55025    
     15600        8000   375.81868     -3.8120493      28.752257      24.400627      227.37667     -450.04402     -751.57208    
     15800        8000   376.95282     -3.8125883      28.721353      24.394387      227.05612     -511.48473     -964.91933    
     16000        8000   376.01802     -3.8128722      28.698755      24.390094      227.17197      370.03709      1085.8657    
     16200        8000   374.13789     -3.813041       28.707906      24.435677      227.07337     -1307.0336     -1461.6733    
     16400        8000   371.15193     -3.8130602      28.689548      24.413264      226.84177      1244.3497      785.40848    
     16600        8000   369.64579     -3.8132525      28.730135      24.390791      227.18245     -1179.5893     -832.78124    
     16800        8000   373.92184     -3.814199       28.717969      24.382176      226.85203     -121.83976     -151.54521    
     17000        8000   370.25286     -3.8141121      28.729875      24.40351       226.71251     -992.67828     -1038.3658    
     17200        8000   368.61143     -3.8142868      28.708765      24.41617       226.59208      498.45785      207.93244    
     17400        8000   371.25868     -3.8150089      28.695656      24.417922      226.68567     -643.7783      -583.19414    
     17600        8000   368.33823     -3.8150128      28.696494      24.403041      226.48555      532.09154      777.22864    
     17800        8000   368.22798     -3.8153705      28.739879      24.401387      226.21722      455.98982      403.30133    
     18000        8000   367.00984     -3.8155776      28.759127      24.394893      226.21528     -39.530614     -226.1616     
     18200        8000   368.74828     -3.8161649      28.73071       24.392923      226.33092     -186.85032     -65.908497    
     18400        8000   370.11151     -3.8167035      28.71947       24.396092      226.52969      74.266711      136.50657    
     18600        8000   363.51554     -3.8161986      28.715707      24.396594      226.62846      560.72367      772.7435     
     18800        8000   359.97154     -3.8160879      28.722754      24.396791      226.45492      65.074421      3.567361     
     19000        8000   362.29111     -3.816734       28.731327      24.393369      226.25858      470.51658      336.21919    
     19200        8000   357.51378     -3.8164485      28.72313       24.397384      226.07671      1097.6185      1197.3996    
     19400        8000   356.36815     -3.816631       28.716172      24.396981      225.99017      763.02009      882.58098    
     19600        8000   361.15787     -3.8175797      28.713154      24.391476      225.98191     -513.76241      413.43509    
     19800        8000   354.70754     -3.817087       28.726516      24.41608       225.37522      1522.4222      1195.6835    
     20000        8000   354.9385      -3.8174309      28.779652      24.424355      225.17701      699.9455       99.903571    
Loop time of 162.761 on 1 procs for 20000 steps with 8000 atoms

Performance: 53.084 ns/day, 0.452 hours/ns, 122.879 timesteps/s, 983.035 katom-step/s
98.7% CPU use with 1 MPI tasks x 1 OpenMP threads

MPI task timing breakdown:
Section |  min time  |  avg time  |  max time  |%varavg| %total
---------------------------------------------------------------
Pair    | 149.11     | 149.11     | 149.11     |   0.0 | 91.61
Neigh   | 5.7181     | 5.7181     | 5.7181     |   0.0 |  3.51
Comm    | 0.81438    | 0.81438    | 0.81438    |   0.0 |  0.50
Output  | 1.2521     | 1.2521     | 1.2521     |   0.0 |  0.77
Modify  | 5.2707     | 5.2707     | 5.2707     |   0.0 |  3.24
Other   |            | 0.5967     |            |       |  0.37

Nlocal:           8000 ave        8000 max        8000 min
Histogram: 1 0 0 0 0 0 0 0 0 0
Nghost:          10055 ave       10055 max       10055 min
Histogram: 1 0 0 0 0 0 0 0 0 0
Neighs:         298720 ave      298720 max      298720 min
Histogram: 1 0 0 0 0 0 0 0 0 0

Total # of neighbors = 298720
Ave neighs/atom = 37.34
Neighbor list builds = 610
Dangerous builds = 0

unfix 1
undump 1
reset_timestep 0

compute MyTemp all temp
compute MyPe all pe

fix ThermoAve all ave/time 1 100 200 c_MyTemp c_MyPe

thermo 200
thermo_style custom step atoms f_ThermoAve[1] f_ThermoAve[2] lz vol pzz
WARNING: New thermo_style command, previous thermo_modify settings will be lost (src/output.cpp:904)
thermo_modify lost warn norm yes flush yes

fix 1 all nvt temp 300.0 300.0 10.0
fix 2 all deform 200 z erate 0.0001

dump 2 all xyz 50000 Au_*.xyz

run 500000
Per MPI rank memory allocation (min/avg/max) = 7.538 | 7.538 | 7.538 Mbytes
   Step        Atoms    f_ThermoAve[1] f_ThermoAve[2]       Lz           Volume          Pzz      
         0        8000   0              0              225.17701      158282.42      699.9455     
       200        8000   355.08367     -3.8175007      225.19953      158298.25     -348.19443    
       400        8000   354.51431     -3.8176342      225.22204      158314.08     -705.72836    
       600        8000   353.65815     -3.8178508      225.24456      158329.91     -348.66189    
       800        8000   353.18989     -3.8181331      225.26708      158345.73     -1070.7422    
      1000        8000   351.20101     -3.8181767      225.2896       158361.56     -31.902533    
      1200        8000   350.47912     -3.8183773      225.31211      158377.39     -1153.0921    
      1400        8000   350.33895     -3.8186799      225.33463      158393.22     -1303.6271    
      1600        8000   349.05964     -3.8188684      225.35715      158409.05     -578.37936    
      1800        8000   347.7419      -3.8190762      225.37967      158424.88     -1399.9864    
      2000        8000   345.87265     -3.8192222      225.40219      158440.7      -2315.0322    
      2200        8000   345.04279     -3.8195041      225.4247       158456.53     -1498.673     
      2400        8000   342.54767     -3.8195733      225.44722      158472.36     -1976.7706    
      2600        8000   342.20656     -3.8199237      225.46974      158488.19     -1677.1428    
      2800        8000   339.51138     -3.8199734      225.49226      158504.02     -2687.6526    
      3000        8000   338.9965      -3.8203035      225.51477      158519.84     -2755.4753    
      3200        8000   338.13338     -3.8205889      225.53729      158535.67     -2598.6889    
      3400        8000   336.9772      -3.8208359      225.55981      158551.5      -3193.6041    
      3600        8000   335.08385     -3.8209851      225.58233      158567.33     -2347.84      
      3800        8000   333.68619     -3.8211966      225.60485      158583.16     -2431.0578    
      4000        8000   331.86897     -3.8213509      225.62736      158598.99     -3246.804     
      4200        8000   331.16323     -3.8216435      225.64988      158614.81     -2503.5889    
      4400        8000   329.6138      -3.8218246      225.6724       158630.64     -3684.5964    
      4600        8000   327.79077     -3.8219643      225.69492      158646.47     -3591.3736    
      4800        8000   326.36154     -3.8221494      225.71743      158662.3      -3982.248     
      5000        8000   325.26682     -3.822372       225.73995      158678.13     -4901.9505    
      5200        8000   323.71207     -3.8225285      225.76247      158693.96     -5516.139     
      5400        8000   321.29051     -3.8225654      225.78499      158709.78     -5803.6424    
      5600        8000   320.99985     -3.8228713      225.8075       158725.61     -5269.3075    
      5800        8000   319.91307     -3.8230684      225.83002      158741.44     -5948.8284    
      6000        8000   318.7243      -3.8232454      225.85254      158757.27     -5472.3822    
      6200        8000   317.98828     -3.8234747      225.87506      158773.1      -5860.5061    
      6400        8000   315.98826     -3.8235333      225.89758      158788.92     -6181.2062    
      6600        8000   314.99956     -3.8237152      225.92009      158804.75     -5472.3779    
      6800        8000   313.67954     -3.8238479      225.94261      158820.58     -6294.9838    
      7000        8000   312.30893     -3.8239658      225.96513      158836.41     -7418.483     
      7200        8000   311.92037     -3.8242013      225.98765      158852.24     -6898.9178    
      7400        8000   310.90895     -3.8243493      226.01016      158868.07     -6669.8164    
      7600        8000   309.15297     -3.824393       226.03268      158883.89     -7372.3643    
      7800        8000   307.94173     -3.8244978      226.0552       158899.72     -6941.2657    
      8000        8000   307.09592     -3.8246412      226.07772      158915.55     -7117.2891    
      8200        8000   305.93826     -3.824736       226.10023      158931.38     -7455.9132    
      8400        8000   304.99149     -3.8248492      226.12275      158947.21     -7370.429     
      8600        8000   304.63653     -3.8250309      226.14527      158963.04     -8080.1231    
      8800        8000   303.45756     -3.8250961      226.16779      158978.86     -8089.3006    
      9000        8000   302.46903     -3.8251759      226.19031      158994.69     -7608.7102    
      9200        8000   301.61454     -3.825264       226.21282      159010.52     -7413.258     
      9400        8000   300.72965     -3.8253384      226.23534      159026.35     -8075.1981    
      9600        8000   300.49006     -3.8254862      226.25786      159042.18     -7696.914     
      9800        8000   299.52335     -3.8255309      226.28038      159058        -8637.8239    
     10000        8000   299.17249     -3.8256434      226.30289      159073.83     -8971.4705    
     10200        8000   298.59573     -3.8257165      226.32541      159089.66     -8378.2833    
     10400        8000   298.61728     -3.8258569      226.34793      159105.49     -8433.927     
     10600        8000   296.95041     -3.8257686      226.37045      159121.32     -8752.3032    
     10800        8000   297.02939     -3.8258933      226.39296      159137.15     -9024.348     
     11000        8000   296.36418     -3.8259101      226.41548      159152.97     -8237.7224    
     11200        8000   295.03713     -3.8258308      226.438        159168.8      -9121.7159    
     11400        8000   294.73388     -3.8258699      226.46052      159184.63     -9953.7888    
     11600        8000   295.05007     -3.8259747      226.48304      159200.46     -9557.4634    
     11800        8000   294.64365     -3.8259731      226.50555      159216.29     -9732.3509    
     12000        8000   294.68568     -3.8260151      226.52807      159232.12     -9107.06      
     12200        8000   294.75605     -3.8260473      226.55059      159247.94     -9477.2701    
     12400        8000   293.63741     -3.8259113      226.57311      159263.77     -9246.1399    
     12600        8000   293.9776      -3.82595        226.59562      159279.6      -9776.0194    
     12800        8000   294.59122     -3.8260086      226.61814      159295.43     -10116.309    
     13000        8000   294.66545     -3.8259825      226.64066      159311.26     -10570.873    
     13200        8000   294.28175     -3.8258821      226.66318      159327.09     -9825.2007    
     13400        8000   294.5931      -3.8258577      226.68569      159342.91     -10403.63     
     13600        8000   294.69884     -3.8257925      226.70821      159358.74     -9788.2734    
     13800        8000   295.01141     -3.8257418      226.73073      159374.57     -9883.6888    
     14000        8000   295.40669     -3.8256895      226.75325      159390.4      -10756.722    
     14200        8000   295.55937     -3.825594       226.77577      159406.23     -10771.026    
     14400        8000   296.02443     -3.8255288      226.79828      159422.05     -10884.131    
     14600        8000   296.26114     -3.8254255      226.8208       159437.88     -11179.955    
     14800        8000   296.42164     -3.8253056      226.84332      159453.71     -10594.149    
     15000        8000   297.81303     -3.82534        226.86584      159469.54     -11336.153    
     15200        8000   298.47446     -3.8252767      226.88835      159485.37     -11368.396    
     15400        8000   298.89949     -3.8251819      226.91087      159501.2      -10117.193    
     15600        8000   299.11291     -3.8250615      226.93339      159517.02     -11582.201    
     15800        8000   300.04177     -3.8250328      226.95591      159532.85     -10512.381    
     16000        8000   299.36795     -3.8248005      226.97842      159548.68     -10654.355    
     16200        8000   299.99292     -3.8247389      227.00094      159564.51     -11199.253    
     16400        8000   300.83312     -3.8247084      227.02346      159580.34     -11098.636    
     16600        8000   301.56699     -3.8246689      227.04598      159596.17     -11617.47     
     16800        8000   301.76758     -3.8245657      227.0685       159611.99     -11131.255    
     17000        8000   302.17044     -3.8244954      227.09101      159627.82     -11957.022    
     17200        8000   302.298       -3.8243954      227.11353      159643.65     -10973.643    
     17400        8000   303.01591     -3.8243817      227.13605      159659.48     -11220.44     
     17600        8000   303.0792      -3.8242914      227.15857      159675.31     -12239.059    
     17800        8000   303.37919     -3.8242399      227.18108      159691.13     -11893.76     
     18000        8000   304.23052     -3.8242696      227.2036       159706.96     -12207.477    
     18200        8000   303.40311     -3.8240923      227.22612      159722.79     -12894.33     
     18400        8000   303.95197     -3.8241025      227.24864      159738.62     -12817.342    
     18600        8000   304.58222     -3.8241336      227.27115      159754.45     -11939.567    
     18800        8000   304.7776      -3.8241204      227.29367      159770.28     -12063.957    
     19000        8000   304.01102     -3.8239934      227.31619      159786.1      -12326.157    
     19200        8000   304.3521      -3.8240208      227.33871      159801.93     -12514.304    
     19400        8000   304.37724     -3.8240182      227.36123      159817.76     -12650.643    
     19600        8000   304.47393     -3.8240357      227.38374      159833.59     -13122.676    
     19800        8000   304.35655     -3.8240362      227.40626      159849.42     -11678.124    
     20000        8000   304.01761     -3.8240202      227.42878      159865.25     -12680.266    
     20200        8000   303.79774     -3.8240294      227.4513       159881.07     -13895.635    
     20400        8000   303.64428     -3.824054       227.47381      159896.9      -13025.813    
     20600        8000   302.86097     -3.8240067      227.49633      159912.73     -13049.251    
     20800        8000   302.85596     -3.8240674      227.51885      159928.56     -13390.488    
     21000        8000   302.325       -3.8240654      227.54137      159944.39     -12674.326    
     21200        8000   302.18822     -3.8241209      227.56389      159960.21     -13389.228    
     21400        8000   301.22867     -3.824073       227.5864       159976.04     -14615.288    
     21600        8000   301.32247     -3.8241628      227.60892      159991.87     -13706.19     
     21800        8000   300.63546     -3.8241548      227.63144      160007.7      -14443.696    
     22000        8000   300.56091     -3.8242256      227.65396      160023.53     -13568.862    
     22200        8000   300.27133     -3.8242691      227.67647      160039.36     -14139.824    
     22400        8000   300.46709     -3.8243732      227.69899      160055.18     -14863.69     
     22600        8000   298.86203     -3.8242411      227.72151      160071.01     -13613.854    
     22800        8000   299.00395     -3.8243325      227.74403      160086.84     -14954.397    
     23000        8000   298.3849      -3.8243201      227.76654      160102.67     -15021.409    
     23200        8000   298.52613     -3.8244012      227.78906      160118.5      -15093.687    
     23400        8000   298.37261     -3.8244382      227.81158      160134.33     -15649.323    
     23600        8000   297.57114     -3.824385       227.8341       160150.15     -15346.812    
     23800        8000   297.26014     -3.8243891      227.85662      160165.98     -15220.882    
     24000        8000   297.90972     -3.8245109      227.87913      160181.81     -15763.958    
     24200        8000   297.00813     -3.8244238      227.90165      160197.64     -14926.414    
     24400        8000   296.5986      -3.8243936      227.92417      160213.47     -15364.468    
     24600        8000   296.585       -3.8244053      227.94669      160229.29     -15711.74     
     24800        8000   296.20168     -3.8243605      227.9692       160245.12     -15198.21     
     25000        8000   295.70237     -3.824292       227.99172      160260.95     -15782.948    
     25200        8000   296.15309     -3.8243366      228.01424      160276.78     -16442.022    
     25400        8000   296.57404     -3.8243673      228.03676      160292.61     -16378.072    
     25600        8000   296.96896     -3.8243853      228.05927      160308.44     -16174.387    
     25800        8000   296.94503     -3.8243398      228.08179      160324.26     -15383.578    
     26000        8000   296.4884      -3.824231       228.10431      160340.09     -16292.058    
     26200        8000   297.3032      -3.8242777      228.12683      160355.92     -16477.643    
     26400        8000   298.23942     -3.824332       228.14935      160371.75     -16685.257    
     26600        8000   297.21647     -3.8241261      228.17186      160387.58     -16680.655    
     26800        8000   297.23561     -3.8240483      228.19438      160403.41     -16319.553    
     27000        8000   297.78708     -3.8240344      228.2169       160419.23     -17026.528    
     27200        8000   298.78793     -3.8240731      228.23942      160435.06     -17402.154    
     27400        8000   298.70069     -3.8239678      228.26193      160450.89     -17443.813    
     27600        8000   298.91701     -3.8238989      228.28445      160466.72     -16699.364    
     27800        8000   300.6256      -3.8240222      228.30697      160482.55     -17058.343    
     28000        8000   299.48243     -3.8237762      228.32949      160498.37     -16842.077    
     28200        8000   300.04786     -3.8237511      228.352        160514.2      -17392.504    
     28400        8000   299.89999     -3.8236343      228.37452      160530.03     -17143.512    
     28600        8000   300.57907     -3.8236257      228.39704      160545.86     -17689.321    
     28800        8000   301.22301     -3.8236134      228.41956      160561.69     -18058.369    
     29000        8000   301.63649     -3.8235734      228.44208      160577.52     -17095.243    
     29200        8000   301.02402     -3.8234047      228.46459      160593.34     -17698.618    
     29400        8000   301.6925      -3.8234041      228.48711      160609.17     -18330.685    
     29600        8000   301.6082      -3.8233091      228.50963      160625        -17555.738    
     29800        8000   301.77223     -3.8232519      228.53215      160640.83     -17907.48     
     30000        8000   301.64417     -3.8231615      228.55466      160656.66     -17838.665    
     30200        8000   302.41658     -3.8231933      228.57718      160672.49     -18101.083    
     30400        8000   302.30742     -3.8231165      228.5997       160688.31     -18536.293    
     30600        8000   303.08322     -3.8231591      228.62222      160704.14     -18059.974    
     30800        8000   302.01055     -3.8229695      228.64473      160719.97     -17944.82     
     31000        8000   301.90894     -3.8229118      228.66725      160735.8      -18504.472    
     31200        8000   302.17548     -3.822908       228.68977      160751.63     -19127.05     
     31400        8000   301.94201     -3.8228452      228.71229      160767.46     -18791.499    
     31600        8000   302.42537     -3.8228818      228.73481      160783.28     -19226.418    
     31800        8000   302.57761     -3.8228818      228.75732      160799.11     -18607.584    
     32000        8000   302.05474     -3.8228023      228.77984      160814.94     -18723.401    
     32200        8000   302.04066     -3.8227942      228.80236      160830.77     -18998.909    
     32400        8000   302.13795     -3.8228061      228.82488      160846.6      -18428.241    
     32600        8000   302.12437     -3.8228096      228.84739      160862.42     -19862.449    
     32800        8000   302.57343     -3.8228769      228.86991      160878.25     -18797.636    
     33000        8000   301.63659     -3.8227723      228.89243      160894.08     -19554.234    
     33200        8000   301.74223     -3.8228073      228.91495      160909.91     -19438.362    
     33400        8000   301.86144     -3.8228499      228.93746      160925.74     -18722.85     
     33600        8000   301.81351     -3.8228762      228.95998      160941.57     -19462.27     
     33800        8000   301.19974     -3.8228325      228.9825       160957.39     -20845.438    
     34000        8000   301.21467     -3.8228716      229.00502      160973.22     -19088.067    
     34200        8000   301.05184     -3.8228923      229.02754      160989.05     -19823.921    
     34400        8000   300.7699      -3.8228988      229.05005      161004.88     -19581.473    
     34600        8000   299.7492      -3.8228113      229.07257      161020.71     -19696.634    
     34800        8000   299.91583     -3.8228773      229.09509      161036.54     -20279.462    
     35000        8000   299.60635     -3.8228809      229.11761      161052.36     -20197.795    
     35200        8000   299.71507     -3.8229376      229.14012      161068.19     -20288.664    
     35400        8000   299.06404     -3.8228941      229.16264      161084.02     -20363.862    
     35600        8000   298.29051     -3.8228317      229.18516      161099.85     -20781.258    
     35800        8000   298.73235     -3.8229231      229.20768      161115.68     -20491.251    
     36000        8000   299.14672     -3.8230074      229.23019      161131.5      -20563.07     
     36200        8000   298.20172     -3.8229121      229.25271      161147.33     -20739.617    
     36400        8000   297.94597     -3.8229003      229.27523      161163.16     -19987.971    
     36600        8000   297.61913     -3.8228751      229.29775      161178.99     -21200.138    
     36800        8000   298.04808     -3.8229407      229.32027      161194.82     -21225.556    
     37000        8000   297.88473     -3.8229244      229.34278      161210.65     -21011.135    
     37200        8000   296.87283     -3.8227929      229.3653       161226.47     -21072.863    
     37400        8000   297.5545      -3.8228735      229.38782      161242.3      -21488.677    
     37600        8000   297.77783     -3.8228873      229.41034      161258.13     -21096.62     
     37800        8000   297.45594     -3.8228239      229.43285      161273.96     -20509.494    
     38000        8000   296.20961     -3.8226349      229.45537      161289.79     -21343.653    
     38200        8000   297.51987     -3.8227673      229.47789      161305.62     -20662.59     
     38400        8000   297.68223     -3.8227444      229.50041      161321.44     -21457.745    
     38600        8000   296.73385     -3.8225697      229.52293      161337.27     -21209.232    
     38800        8000   297.33595     -3.8225882      229.54544      161353.1      -21253.581    
     39000        8000   297.46907     -3.8225391      229.56796      161368.93     -22659.653    
     39200        8000   298.01897     -3.822536       229.59048      161384.76     -22335.431    
     39400        8000   298.14231     -3.8224722      229.613        161400.58     -21754.569    
     39600        8000   298.88747     -3.8224833      229.63551      161416.41     -22047.351    
     39800        8000   298.27495     -3.8223143      229.65803      161432.24     -22335.247    
     40000        8000   298.24267     -3.8222154      229.68055      161448.07     -21624.414    
     40200        8000   298.9108      -3.8222042      229.70307      161463.9      -22198.327    
     40400        8000   299.2924      -3.8221525      229.72558      161479.73     -22157.882    
     40600        8000   299.13206     -3.8220282      229.7481       161495.55     -22446.946    
     40800        8000   299.16662     -3.8219273      229.77062      161511.38     -23054.545    
     41000        8000   299.76175     -3.8218971      229.79314      161527.21     -22869.285    
     41200        8000   300.50623     -3.821887       229.81566      161543.04     -22920.1      
     41400        8000   299.96263     -3.8217112      229.83817      161558.87     -23807.035    
     41600        8000   300.35564     -3.821656       229.86069      161574.7      -22024.523    
     41800        8000   300.55109     -3.821579       229.88321      161590.52     -22685.605    
     42000        8000   300.50529     -3.8214724      229.90573      161606.35     -22903.966    
     42200        8000   301.07915     -3.8214488      229.92824      161622.18     -22466.63     
     42400        8000   300.18108     -3.8212387      229.95076      161638.01     -23456.333    
     42600        8000   301.13136     -3.8212698      229.97328      161653.84     -23334.96     
     42800        8000   301.15636     -3.8211855      229.9958       161669.66     -23286.867    
     43000        8000   301.89849     -3.8211981      230.01831      161685.49     -23711.886    
     43200        8000   301.79634     -3.8211055      230.04083      161701.32     -23712.719    
     43400        8000   302.73831     -3.8211533      230.06335      161717.15     -22970.82     
     43600        8000   302.9259      -3.8211101      230.08587      161732.98     -23094.481    
     43800        8000   302.6275      -3.8210097      230.10839      161748.81     -23094.357    
     44000        8000   302.47757     -3.8209349      230.1309       161764.63     -23291.98     
     44200        8000   302.92739     -3.8209443      230.15342      161780.46     -23580.358    
     44400        8000   303.12207     -3.8209279      230.17594      161796.29     -23695.887    
     44600        8000   302.89648     -3.8208646      230.19846      161812.12     -23381.062    
     44800        8000   302.63432     -3.8208041      230.22097      161827.95     -23143.79     
     45000        8000   302.73788     -3.8207988      230.24349      161843.78     -23813.63     
     45200        8000   302.63542     -3.8207737      230.26601      161859.6      -23508.905    
     45400        8000   302.60365     -3.8207653      230.28853      161875.43     -22690.186    
     45600        8000   301.90717     -3.8206789      230.31104      161891.26     -23680.037    
     45800        8000   302.19624     -3.8207254      230.33356      161907.09     -23133.878    
     46000        8000   301.89647     -3.8207023      230.35608      161922.92     -23921.328    
     46200        8000   302.01385     -3.8207382      230.3786       161938.74     -24677.568    
     46400        8000   302.2236      -3.820791       230.40112      161954.57     -23677.91     
     46600        8000   302.20491     -3.8208205      230.42363      161970.4      -24380.377    
     46800        8000   302.34276     -3.8208733      230.44615      161986.23     -23250.9      
     47000        8000   301.2657      -3.8207735      230.46867      162002.06     -23990.534    
     47200        8000   300.8225      -3.8207566      230.49119      162017.89     -23917.503    
     47400        8000   300.73571     -3.8207873      230.5137       162033.71     -24551.494    
     47600        8000   300.05318     -3.82074        230.53622      162049.54     -24403.917    
     47800        8000   300.18751     -3.8207979      230.55874      162065.37     -25254.257    
     48000        8000   299.83487     -3.8207909      230.58126      162081.2      -24301.375    
     48200        8000   298.80571     -3.8206957      230.60377      162097.03     -25489.548    
     48400        8000   300.16696     -3.8209051      230.62629      162112.86     -24937.581    
     48600        8000   298.83183     -3.8207636      230.64881      162128.68     -24733.554    
     48800        8000   299.28797     -3.8208498      230.67133      162144.51     -24840.228    
     49000        8000   298.31118     -3.8207462      230.69385      162160.34     -24839.46     
     49200        8000   297.97458     -3.8207204      230.71636      162176.17     -25264.715    
     49400        8000   297.41313     -3.8206606      230.73888      162192        -25769.656    
     49600        8000   297.85404     -3.8207244      230.7614       162207.83     -26310.17     
     49800        8000   297.92775     -3.820735       230.78392      162223.65     -25773.69     
     50000        8000   298.14791     -3.8207598      230.80643      162239.48     -26277.277    
     50200        8000   298.11591     -3.8207456      230.82895      162255.31     -25276.226    
     50400        8000   296.55681     -3.8205287      230.85147      162271.14     -25943.798    
     50600        8000   297.28595     -3.8205995      230.87399      162286.97     -24807.857    
     50800        8000   297.37474     -3.8205816      230.8965       162302.79     -25846.611    
     51000        8000   297.01311     -3.8204967      230.91902      162318.62     -25623.983    
     51200        8000   297.01806     -3.8204517      230.94154      162334.45     -26138.686    
     51400        8000   296.78292     -3.8203673      230.96406      162350.28     -25825.745    
     51600        8000   296.54057     -3.8202744      230.98658      162366.11     -26452.908    
     51800        8000   296.74904     -3.8202313      231.00909      162381.94     -26572.345    
     52000        8000   297.49113     -3.820249       231.03161      162397.76     -26558.054    
     52200        8000   297.68744     -3.8201894      231.05413      162413.59     -26741.508    
     52400        8000   297.66131     -3.8200938      231.07665      162429.42     -25926.364    
     52600        8000   298.00378     -3.820041       231.09916      162445.25     -26685.707    
     52800        8000   298.44789     -3.8199951      231.12168      162461.08     -25891.754    
     53000        8000   298.65135     -3.8199146      231.1442       162476.91     -26559.092    
     53200        8000   298.62552     -3.819801       231.16672      162492.73     -26345.605    
     53400        8000   299.01294     -3.8197394      231.18923      162508.56     -25943.968    
     53600        8000   299.27203     -3.8196611      231.21175      162524.39     -26369.908    
     53800        8000   299.35223     -3.8195598      231.23427      162540.22     -28341.926    
     54000        8000   300.33478     -3.8195739      231.25679      162556.05     -26316.931    
     54200        8000   300.25744     -3.8194559      231.27931      162571.87     -27567.73     
     54400        8000   300.23765     -3.8193461      231.30182      162587.7      -27124.055    
     54600        8000   300.69024     -3.8193005      231.32434      162603.53     -26912.042    
     54800        8000   300.79245     -3.8192136      231.34686      162619.36     -27251.688    
     55000        8000   300.86532     -3.8191263      231.36938      162635.19     -27766.387    
     55200        8000   301.50471     -3.8191153      231.39189      162651.02     -26695.904    
     55400        8000   301.10307     -3.8189752      231.41441      162666.84     -27633.591    
     55600        8000   301.3835      -3.8189275      231.43693      162682.67     -27293.752    
     55800        8000   301.28249     -3.8188356      231.45945      162698.5      -27557.491    
     56000        8000   302.37151     -3.8189017      231.48197      162714.33     -27677.821    
     56200        8000   302.17921     -3.8188071      231.50448      162730.16     -27206.056    
     56400        8000   302.59212     -3.8187963      231.527        162745.99     -27283.546    
     56600        8000   301.84039     -3.8186394      231.54952      162761.81     -28147.207    
     56800        8000   302.21556     -3.8186319      231.57204      162777.64     -27665.881    
     57000        8000   302.63686     -3.8186357      231.59455      162793.47     -28273.904    
     57200        8000   301.89884     -3.8184931      231.61707      162809.3      -27402.341    
     57400        8000   301.847       -3.8184459      231.63959      162825.13     -27875.573    
     57600        8000   301.66288     -3.8183863      231.66211      162840.95     -28374.327    
     57800        8000   301.36925     -3.8183172      231.68462      162856.78     -27935.522    
     58000        8000   301.67672     -3.8183321      231.70714      162872.61     -28481.378    
     58200        8000   301.51713     -3.8182918      231.72966      162888.44     -28493.852    
     58400        8000   301.8934      -3.8183264      231.75218      162904.27     -27662.503    
     58600        8000   301.91049     -3.8183218      231.7747       162920.1      -28550.227    
     58800        8000   301.26318     -3.8182364      231.79721      162935.92     -28525.208    
     59000        8000   300.92964     -3.8181975      231.81973      162951.75     -28357.194    
     59200        8000   300.84416     -3.8181968      231.84225      162967.58     -28567.01     
     59400        8000   300.71102     -3.8181949      231.86477      162983.41     -28937.848    
     59600        8000   299.78196     -3.8180943      231.88728      162999.24     -29383.294    
     59800        8000   299.80501     -3.8181199      231.9098       163015.07     -29411.924    
     60000        8000   300.31322     -3.8182109      231.93232      163030.89     -28647.172    
     60200        8000   299.2315      -3.8180995      231.95484      163046.72     -28684.5      
     60400        8000   299.34333     -3.8181436      231.97735      163062.55     -28574.234    
     60600        8000   298.57414     -3.8180735      231.99987      163078.38     -28561.968    
     60800        8000   299.10262     -3.8181697      232.02239      163094.21     -29582.909    
     61000        8000   299.5526      -3.8182521      232.04491      163110.03     -28651.202    
     61200        8000   298.76264     -3.8181731      232.06743      163125.86     -28252.973    
     61400        8000   299.1501      -3.8182433      232.08994      163141.69     -28220.695    
     61600        8000   298.21337     -3.8181383      232.11246      163157.52     -28498.076    
     61800        8000   298.68945     -3.8182115      232.13498      163173.35     -28596.675    
     62000        8000   298.29922     -3.8181681      232.1575       163189.18     -28343.954    
     62200        8000   298.18856     -3.818156       232.18001      163205        -29277.087    
     62400        8000   296.97048     -3.817994       232.20253      163220.83     -29113.856    
     62600        8000   298.22511     -3.8181465      232.22505      163236.66     -29164.101    
     62800        8000   296.85565     -3.8179542      232.24757      163252.49     -29017.107    
     63000        8000   297.56998     -3.8180252      232.27008      163268.32     -29082.383    
     63200        8000   297.45023     -3.8179819      232.2926       163284.15     -28703.944    
     63400        8000   297.28048     -3.8179265      232.31512      163299.97     -28477.117    
     63600        8000   297.57554     -3.8179253      232.33764      163315.8      -29026.394    
     63800        8000   297.74191     -3.8178998      232.36016      163331.63     -28901.391    
     64000        8000   297.5572      -3.8178221      232.38267      163347.46     -29168.355    
     64200        8000   298.81061     -3.817922       232.40519      163363.29     -29759.418    
     64400        8000   298.38125     -3.8177938      232.42771      163379.11     -29944.552    
     64600        8000   298.03827     -3.8176648      232.45023      163394.94     -29705.931    
     64800        8000   298.2651      -3.817595       232.47274      163410.77     -29379.169    
     65000        8000   298.77932     -3.8175451      232.49526      163426.6      -29039.624    
     65200        8000   299.36491     -3.8174841      232.51778      163442.43     -29629.961    
     65400        8000   299.67817     -3.8173647      232.5403       163458.26     -29587.908    
     65600        8000   299.75592     -3.8171954      232.56281      163474.08     -29992.941    
     65800        8000   300.32219     -3.8170784      232.58533      163489.91     -29172.964    
     66000        8000   301.50422     -3.8170448      232.60785      163505.74     -29519.744    
     66200        8000   301.49717     -3.8168718      232.63037      163521.57     -29490.883    
     66400        8000   301.89867     -3.8167738      232.65289      163537.4      -29878.093    
     66600        8000   301.7933      -3.816634       232.6754       163553.23     -30289.481    
     66800        8000   302.8281      -3.8166619      232.69792      163569.05     -29599.48     
     67000        8000   303.41935     -3.8166519      232.72044      163584.88     -29917.42     
     67200        8000   303.08663     -3.8165373      232.74296      163600.71     -29521.389    
     67400        8000   302.76722     -3.8164365      232.76547      163616.54     -29302.61     
     67600        8000   302.48944     -3.8163515      232.78799      163632.37     -29792.626    
     67800        8000   303.45763     -3.8164353      232.81051      163648.2      -29775.62     
     68000        8000   302.63691     -3.8162955      232.83303      163664.02     -30234.255    
     68200        8000   303.51446     -3.8163817      232.85554      163679.85     -29465.534    
     68400        8000   302.65947     -3.8162522      232.87806      163695.68     -30278.042    
     68600        8000   303.31162     -3.8163236      232.90058      163711.51     -30014.57     
     68800        8000   302.45268     -3.8162066      232.9231       163727.34     -30066.993    
     69000        8000   302.89903     -3.8162647      232.94562      163743.16     -30637.338    
     69200        8000   302.68864     -3.8162433      232.96813      163758.99     -29590.928    
     69400        8000   301.89288     -3.8161533      232.99065      163774.82     -30172.116    
     69600        8000   301.84214     -3.8161636      233.01317      163790.65     -30879.407    
     69800        8000   301.65938     -3.8161593      233.03569      163806.48     -30671.273    
     70000        8000   301.7462      -3.8161933      233.0582       163822.31     -31369.287    
     70200        8000   301.30836     -3.81616        233.08072      163838.13     -30503.345    
     70400        8000   300.82044     -3.8161222      233.10324      163853.96     -30371.412    
     70600        8000   300.21626     -3.8160699      233.12576      163869.79     -30504.02     
     70800        8000   300.49394     -3.8161303      233.14827      163885.62     -30374.308    
     71000        8000   299.82836     -3.8160673      233.17079      163901.45     -29791.284    
     71200        8000   300.13542     -3.8161281      233.19331      163917.28     -30757.603    
     71400        8000   299.39608     -3.8160491      233.21583      163933.1      -30620.932    
     71600        8000   299.72882     -3.8161052      233.23835      163948.93     -31079.218    
     71800        8000   299.01098     -3.8160209      233.26086      163964.76     -31267.213    
     72000        8000   299.82073     -3.8161296      233.28338      163980.59     -30147.928    
     72200        8000   298.78295     -3.8159964      233.3059       163996.42     -30353.619    
     72400        8000   299.21583     -3.8160489      233.32842      164012.24     -30780.186    
     72600        8000   299.75601     -3.8161106      233.35093      164028.07     -29427.163    
     72800        8000   299.66316     -3.8160887      233.37345      164043.9      -29068.732    
     73000        8000   299.47383     -3.8160527      233.39597      164059.73     -30840.654    
     73200        8000   300.08087     -3.8161156      233.41849      164075.56     -30033.608    
     73400        8000   300.59554     -3.8161666      233.44101      164091.39     -30019.408    
     73600        8000   299.83461     -3.8160512      233.46352      164107.21     -29458.774    
     73800        8000   299.69337     -3.8160152      233.48604      164123.04     -29875.014    
     74000        8000   299.94625     -3.8160278      233.50856      164138.87     -29308.319    
     74200        8000   299.81243     -3.8159898      233.53108      164154.7      -28892.316    
     74400        8000   299.60704     -3.8159415      233.55359      164170.53     -29148.144    
     74600        8000   299.54813     -3.8159104      233.57611      164186.36     -29175.933    
     74800        8000   298.72047     -3.8157783      233.59863      164202.18     -30663.386    
     75000        8000   299.54812     -3.8158565      233.62115      164218.01     -30744.372    
     75200        8000   299.42321     -3.8158105      233.64366      164233.84     -30392.913    
     75400        8000   300.49486     -3.8159184      233.66618      164249.67     -30434.722    
     75600        8000   299.71669     -3.8157863      233.6887       164265.5      -28522.63     
     75800        8000   299.92262     -3.8157831      233.71122      164281.32     -29564.082    
     76000        8000   300.1359      -3.81578        233.73374      164297.15     -29872.274    
     76200        8000   301.3229      -3.8159049      233.75625      164312.98     -29105.653    
     76400        8000   301.64491     -3.8159231      233.77877      164328.81     -29336.947    
     76600        8000   301.70516     -3.8159137      233.80129      164344.64     -28083.079    
     76800        8000   301.54915     -3.8158872      233.82381      164360.47     -28355.506    
     77000        8000   302.63316     -3.8160343      233.84632      164376.29     -27410.938    
     77200        8000   303.34239     -3.816156       233.86884      164392.12     -26657.054    
     77400        8000   303.75045     -3.8162707      233.89136      164407.95     -25585.679    
     77600        8000   304.32868     -3.8164444      233.91388      164423.78     -24752.981    
     77800        8000   303.52417     -3.8164703      233.93639      164439.61     -24913.924    
     78000        8000   302.96882     -3.8165439      233.95891      164455.44     -24881.33     
     78200        8000   302.42186     -3.8166145      233.98143      164471.26     -24351.066    
     78400        8000   303.14171     -3.8168291      234.00395      164487.09     -24214.281    
     78600        8000   303.3987      -3.8169597      234.02647      164502.92     -23546.625    
     78800        8000   301.94676     -3.8168478      234.04898      164518.75     -23208.363    
     79000        8000   301.93995     -3.816906       234.0715       164534.58     -24224.402    
     79200        8000   301.59987     -3.8169081      234.09402      164550.4      -23817.123    
     79400        8000   301.4853      -3.8169317      234.11654      164566.23     -24273.785    
     79600        8000   301.11701     -3.8169168      234.13905      164582.06     -24165.356    
     79800        8000   300.94269     -3.8169234      234.16157      164597.89     -24110.225    
     80000        8000   300.61081     -3.8169071      234.18409      164613.72     -24144.591    
     80200        8000   300.31822     -3.816894       234.20661      164629.55     -23802.512    
     80400        8000   300.08372     -3.8168875      234.22912      164645.37     -24499.319    
     80600        8000   299.41043     -3.8168223      234.25164      164661.2      -25172.905    
     80800        8000   300.06693     -3.816927       234.27416      164677.03     -24648.076    
     81000        8000   300.13118     -3.8169543      234.29668      164692.86     -25626.234    
     81200        8000   299.97993     -3.8169514      234.3192       164708.69     -25014.165    
     81400        8000   299.95964     -3.8169655      234.34171      164724.52     -24859.168    
     81600        8000   300.61776     -3.8170665      234.36423      164740.34     -25094.061    
     81800        8000   299.93726     -3.8169933      234.38675      164756.17     -24581.775    
     82000        8000   299.34049     -3.8169305      234.40927      164772        -24809.124    
     82200        8000   299.95354     -3.8170225      234.43178      164787.83     -24304.591    
     82400        8000   298.97075     -3.8169068      234.4543       164803.66     -24834.606    
     82600        8000   298.74029     -3.8168854      234.47682      164819.49     -25215.086    
     82800        8000   298.6254      -3.816876       234.49934      164835.31     -25766.772    
     83000        8000   299.18106     -3.8169497      234.52185      164851.14     -24806.377    
     83200        8000   299.1094      -3.8169404      234.54437      164866.97     -25228.659    
     83400        8000   298.73941     -3.8168883      234.56689      164882.8      -25467.187    
     83600        8000   297.87155     -3.8167683      234.58941      164898.63     -25401.248    
     83800        8000   297.99943     -3.8167731      234.61193      164914.45     -25261.648    
     84000        8000   298.50903     -3.8168227      234.63444      164930.28     -24609.32     
     84200        8000   297.53751     -3.8166773      234.65696      164946.11     -25541.917    
     84400        8000   298.53984     -3.816781       234.67948      164961.94     -25781.116    
     84600        8000   298.00718     -3.8166812      234.702        164977.77     -25399.864    
     84800        8000   298.39058     -3.8166953      234.72451      164993.6      -25502.367    
     85000        8000   298.02309     -3.8166068      234.74703      165009.42     -25005.39     
     85200        8000   297.89118     -3.8165432      234.76955      165025.25     -26175.718    
     85400        8000   297.04148     -3.8163791      234.79207      165041.08     -26335.919    
     85600        8000   297.99174     -3.81644        234.81458      165056.91     -25234.084    
     85800        8000   298.32719     -3.8164158      234.8371       165072.74     -25766.619    
     86000        8000   298.58681     -3.8163745      234.85962      165088.57     -26060.183    
     86200        8000   299.54021     -3.8164154      234.88214      165104.39     -25206.271    
     86400        8000   299.09714     -3.8162699      234.90466      165120.22     -26345.355    
     86600        8000   298.70794     -3.8161232      234.92717      165136.05     -26846.706    
     86800        8000   299.90588     -3.8161744      234.94969      165151.88     -25381.119    
     87000        8000   300.15929     -3.8161003      234.97221      165167.71     -25281.563    
     87200        8000   300.63779     -3.8160523      234.99473      165183.53     -24863.257    
     87400        8000   301.15509     -3.8160089      235.01724      165199.36     -24072.581    
     87600        8000   301.27025     -3.8159164      235.03976      165215.19     -24175.836    
     87800        8000   302.61316     -3.8159873      235.06228      165231.02     -24045.946    
     88000        8000   302.76222     -3.8159108      235.0848       165246.85     -24348.136    
     88200        8000   302.99393     -3.8158523      235.10731      165262.68     -24002.259    
     88400        8000   302.52195     -3.8157106      235.12983      165278.5      -23393.108    
     88600        8000   302.52271     -3.8156391      235.15235      165294.33     -23927.118    
     88800        8000   303.35591     -3.8156828      235.17487      165310.16     -24895.484    
     89000        8000   302.98985     -3.8155787      235.19739      165325.99     -24354.732    
     89200        8000   303.45304     -3.8155908      235.2199       165341.82     -24370.022    
     89400        8000   303.31383     -3.8155326      235.24242      165357.65     -24246.11     
     89600        8000   302.57247     -3.8154047      235.26494      165373.47     -24630.769    
     89800        8000   302.54186     -3.8153762      235.28746      165389.3      -25125.949    
     90000        8000   302.91289     -3.8154069      235.30997      165405.13     -24990.359    
     90200        8000   303.26961     -3.8154447      235.33249      165420.96     -25987.046    
     90400        8000   303.03918     -3.8154148      235.35501      165436.79     -24705.792    
     90600        8000   303.1808      -3.8154454      235.37753      165452.61     -24197.721    
     90800        8000   303.28261     -3.8154837      235.40004      165468.44     -24332.57     
     91000        8000   302.00507     -3.8153573      235.42256      165484.27     -23964.824    
     91200        8000   301.29383     -3.815319       235.44508      165500.1      -24409.284    
     91400        8000   301.27532     -3.8153841      235.4676       165515.93     -25197.451    
     91600        8000   300.29942     -3.8153381      235.49012      165531.76     -25100.818    
     91800        8000   300.19876     -3.8154154      235.51263      165547.58     -25627.868    
     92000        8000   299.76873     -3.8154528      235.53515      165563.41     -25889.485    
     92200        8000   299.63873     -3.8155244      235.55767      165579.24     -25732.773    
     92400        8000   299.04837     -3.8155251      235.58019      165595.07     -24965.734    
     92600        8000   298.14565     -3.8154688      235.6027       165610.9      -25588.225    
     92800        8000   298.02234     -3.8154921      235.62522      165626.73     -25528.082    
     93000        8000   297.76493     -3.8154793      235.64774      165642.55     -25734.967    
     93200        8000   297.76287     -3.8154825      235.67026      165658.38     -25965.407    
     93400        8000   297.64762     -3.8154577      235.69278      165674.21     -25562.97     
     93600        8000   297.72685     -3.8154479      235.71529      165690.04     -25611.334    
     93800        8000   297.67269     -3.8154131      235.73781      165705.87     -26227.263    
     94000        8000   297.90495     -3.8154078      235.76033      165721.69     -24547.807    
     94200        8000   297.77454     -3.815353       235.78285      165737.52     -25566.262    
     94400        8000   298.03547     -3.8153442      235.80536      165753.35     -24990.334    
     94600        8000   297.64629     -3.815248       235.82788      165769.18     -25080.722    
     94800        8000   298.28012     -3.8152805      235.8504       165785.01     -26384.348    
     95000        8000   299.07648     -3.8153283      235.87292      165800.84     -25689.973    
     95200        8000   299.39052     -3.8153113      235.89543      165816.66     -25279.719    
     95400        8000   298.99225     -3.8151996      235.91795      165832.49     -24942.338    
     95600        8000   299.03234     -3.8151415      235.94047      165848.32     -25065.178    
     95800        8000   298.38462     -3.8149913      235.96299      165864.15     -26570.272    
     96000        8000   299.0493      -3.8150061      235.98551      165879.98     -26368.02     
     96200        8000   299.66684     -3.8150128      236.00802      165895.81     -25710.351    
     96400        8000   299.7386      -3.8149481      236.03054      165911.63     -25449.393    
     96600        8000   299.13122     -3.8147948      236.05306      165927.46     -26023.374    
     96800        8000   299.5024      -3.814766       236.07558      165943.29     -25928.399    
     97000        8000   299.98665     -3.8147505      236.09809      165959.12     -25782.905    
     97200        8000   299.91912     -3.8146629      236.12061      165974.95     -26063.204    
     97400        8000   300.91589     -3.8147136      236.14313      165990.77     -25650.344    
     97600        8000   300.85812     -3.8146295      236.16565      166006.6      -25736.082    
     97800        8000   300.81736     -3.8145488      236.18816      166022.43     -25616.484    
     98000        8000   300.59623     -3.8144467      236.21068      166038.26     -24988.134    
     98200        8000   301.75908     -3.8145257      236.2332       166054.09     -24852.074    
     98400        8000   301.92743     -3.8144789      236.25572      166069.92     -25984.309    
     98600        8000   301.88766     -3.8144068      236.27824      166085.74     -24372.164    
     98800        8000   301.64922     -3.814314       236.30075      166101.57     -25523.438    
     99000        8000   301.49445     -3.8142336      236.32327      166117.4      -26591.109    
     99200        8000   301.62237     -3.8141913      236.34579      166133.23     -24659.886    
     99400        8000   301.88868     -3.8141729      236.36831      166149.06     -25758.634    
     99600        8000   302.33546     -3.81418        236.39082      166164.89     -25029.812    
     99800        8000   302.26374     -3.8141252      236.41334      166180.71     -24731.936    
    100000        8000   302.16527     -3.8140717      236.43586      166196.54     -25066.116    
    100200        8000   302.19482     -3.8140386      236.45838      166212.37     -24463.734    
    100400        8000   302.37721     -3.814032       236.48089      166228.2      -24778.704    
    100600        8000   302.73477     -3.8140554      236.50341      166244.03     -25546.661    
    100800        8000   302.75368     -3.8140436      236.52593      166259.86     -25525.734    
    101000        8000   303.01862     -3.8140748      236.54845      166275.68     -25302.501    
    101200        8000   302.7037      -3.8140442      236.57097      166291.51     -24190.921    
    101400        8000   302.66882     -3.8140659      236.59348      166307.34     -24388.81     
    101600        8000   302.12205     -3.814038       236.616        166323.17     -24424.224    
    101800        8000   300.92256     -3.8139411      236.63852      166339        -25301.147    
    102000        8000   301.959       -3.8141456      236.66104      166354.82     -25960.159    
    102200        8000   301.55591     -3.8141726      236.68355      166370.65     -24545.763    
    102400        8000   300.71132     -3.8141475      236.70607      166386.48     -24286.457    
    102600        8000   301.12459     -3.8142831      236.72859      166402.31     -24074.79     
    102800        8000   300.23108     -3.8142434      236.75111      166418.14     -24178.588    
    103000        8000   300.1335      -3.8142965      236.77362      166433.97     -25174.772    
    103200        8000   299.30752     -3.8142421      236.79614      166449.79     -24072.247    
    103400        8000   298.79665     -3.8142179      236.81866      166465.62     -24923.866    
    103600        8000   298.90929     -3.8142617      236.84118      166481.45     -24661.429    
    103800        8000   299.8158      -3.8143987      236.8637       166497.28     -24296.95     
    104000        8000   299.67344     -3.8143931      236.88621      166513.11     -24041.197    
    104200        8000   300.34093     -3.8144873      236.90873      166528.94     -23453.292    
    104400        8000   299.55778     -3.8143905      236.93125      166544.76     -23385.638    
    104600        8000   300.24513     -3.8144813      236.95377      166560.59     -23411.74     
    104800        8000   299.5801      -3.8143957      236.97628      166576.42     -23047.791    
    105000        8000   300.21387     -3.8144767      236.9988       166592.25     -24098.009    
    105200        8000   300.56736     -3.8145195      237.02132      166608.08     -23425.804    
    105400        8000   300.18394     -3.8144676      237.04384      166623.9      -23161.879    
    105600        8000   300.57984     -3.814517       237.06635      166639.73     -23056.927    
    105800        8000   299.9176      -3.8144302      237.08887      166655.56     -22884.176    
    106000        8000   300.12001     -3.8144556      237.11139      166671.39     -23658.102    
    106200        8000   299.1316      -3.8143258      237.13391      166687.22     -23427.359    
    106400        8000   299.92125     -3.8144256      237.15643      166703.05     -22426.384    
    106600        8000   300.17665     -3.8144579      237.17894      166718.87     -23230.615    
    106800        8000   300.88865     -3.8145491      237.20146      166734.7      -22301.99     
    107000        8000   300.02408     -3.8144387      237.22398      166750.53     -21830.648    
    107200        8000   300.24765     -3.8144706      237.2465       166766.36     -22136.771    
    107400        8000   299.51285     -3.8143796      237.26901      166782.19     -22191.235    
    107600        8000   299.78709     -3.8144201      237.29153      166798.02     -22699.938    
    107800        8000   300.58502     -3.8145286      237.31405      166813.84     -22651.017    
    108000        8000   300.03339     -3.8144644      237.33657      166829.67     -22031.362    
    108200        8000   299.72006     -3.8144348      237.35908      166845.5      -21137.051    
    108400        8000   300.27        -3.8145214      237.3816       166861.33     -21950.429    
    108600        8000   300.07308     -3.8145148      237.40412      166877.16     -22337.578    
    108800        8000   301.06069     -3.814667       237.42664      166892.98     -21282.384    
    109000        8000   300.94884     -3.8146859      237.44916      166908.81     -20248.691    
    109200        8000   300.83373     -3.8147141      237.47167      166924.64     -21207.286    
    109400        8000   301.21991     -3.8148147      237.49419      166940.47     -20325.329    
    109600        8000   300.1252      -3.8147337      237.51671      166956.3      -20588.501    
    109800        8000   300.50443     -3.8148497      237.53923      166972.13     -19550.458    
    110000        8000   300.54854     -3.8149285      237.56174      166987.95     -19426.885    
    110200        8000   299.1578      -3.814823       237.58426      167003.78     -20166.588    
    110400        8000   298.68739     -3.8148328      237.60678      167019.61     -20647.358    
    110600        8000   298.92033     -3.8149259      237.6293       167035.44     -20377.192    
    110800        8000   298.16372     -3.8148822      237.65182      167051.27     -20819.17     
    111000        8000   299.27283     -3.8150674      237.67433      167067.1      -20086.516    
    111200        8000   298.6187      -3.8150137      237.69685      167082.92     -20699.986    
    111400        8000   298.69149     -3.8150416      237.71937      167098.75     -20228.141    
    111600        8000   299.35602     -3.8151366      237.74189      167114.58     -19726.594    
    111800        8000   299.06077     -3.815099       237.7644       167130.41     -18957.461    
    112000        8000   299.14621     -3.8151043      237.78692      167146.24     -18533.564    
    112200        8000   299.2189      -3.8151026      237.80944      167162.06     -18815.289    
    112400        8000   300.06858     -3.8151973      237.83196      167177.89     -18075.826    
    112600        8000   300.48483     -3.8152344      237.85447      167193.72     -17791.803    
    112800        8000   300.18995     -3.8151797      237.87699      167209.55     -18389.993    
    113000        8000   300.00789     -3.8151386      237.89951      167225.38     -16992.465    
    113200        8000   299.99764     -3.8151216      237.92203      167241.21     -18078.063    
    113400        8000   300.48193     -3.8151667      237.94455      167257.03     -18026.019    
    113600        8000   300.83794     -3.8151953      237.96706      167272.86     -18176.909    
    113800        8000   300.79946     -3.8151727      237.98958      167288.69     -18400.013    
    114000        8000   300.615       -3.8151313      238.0121       167304.52     -18303.94     
    114200        8000   299.98935     -3.8150338      238.03462      167320.35     -18268.037    
    114400        8000   299.96844     -3.8150151      238.05713      167336.18     -18951.839    
    114600        8000   300.25462     -3.8150348      238.07965      167352        -18262.606    
    114800        8000   300.36927     -3.8150328      238.10217      167367.83     -18334.561    
    115000        8000   300.46858     -3.8150294      238.12469      167383.66     -18987.025    
    115200        8000   299.83508     -3.8149311      238.1472       167399.49     -19190.91     
    115400        8000   300.41445     -3.8149891      238.16972      167415.32     -18179.679    
    115600        8000   299.51141     -3.8148569      238.19224      167431.14     -18871.953    
    115800        8000   299.55219     -3.8148453      238.21476      167446.97     -18220.054    
    116000        8000   300.51134     -3.8149536      238.23728      167462.8      -18315.267    
    116200        8000   299.70006     -3.8148336      238.25979      167478.63     -18704.123    
    116400        8000   299.88488     -3.8148423      238.28231      167494.46     -18424.052    
    116600        8000   300.1747      -3.8148659      238.30483      167510.29     -18405.52     
    116800        8000   299.95767     -3.8148252      238.32735      167526.11     -18534.933    
    117000        8000   300.63156     -3.8149013      238.34986      167541.94     -17349.128    
    117200        8000   300.52734     -3.8148822      238.37238      167557.77     -17795.005    
    117400        8000   301.38694     -3.8149928      238.3949       167573.6      -17023.799    
    117600        8000   301.77969     -3.8150513      238.41742      167589.43     -17234.761    
    117800        8000   301.42722     -3.8150226      238.43993      167605.26     -16183.24     
    118000        8000   302.1099      -3.8151411      238.46245      167621.08     -15934.858    
    118200        8000   302.26883     -3.8152082      238.48497      167636.91     -15736.797    
    118400        8000   301.92595     -3.8152285      238.50749      167652.74     -14038.517    
    118600        8000   301.74392     -3.8152901      238.53001      167668.57     -13676.276    
    118800        8000   301.68671     -3.8153842      238.55252      167684.4      -14327.422    
    119000        8000   300.67952     -3.8153648      238.57504      167700.23     -13905.056    
    119200        8000   300.47937     -3.8154522      238.59756      167716.05     -14019.817    
    119400        8000   299.75143     -3.8154634      238.62008      167731.88     -13494.982    
    119600        8000   299.91655     -3.8155777      238.64259      167747.71     -13547.281    
    119800        8000   299.78798     -3.8156388      238.66511      167763.54     -14049.096    
    120000        8000   299.31023     -3.8156381      238.68763      167779.37     -14564.13     
    120200        8000   299.53298     -3.8157134      238.71015      167795.19     -13279.109    
    120400        8000   299.29556     -3.8157188      238.73266      167811.02     -13177.683    
    120600        8000   298.63362     -3.8156598      238.75518      167826.85     -14483.671    
    120800        8000   299.43699     -3.8157806      238.7777       167842.68     -13284.641    
    121000        8000   299.11295     -3.8157511      238.80022      167858.51     -13327.895    
    121200        8000   299.69777     -3.8158349      238.82274      167874.34     -12842.318    
    121400        8000   299.66544     -3.8158356      238.84525      167890.16     -12113.058    
    121600        8000   299.35156     -3.8157975      238.86777      167905.99     -12968.516    
    121800        8000   298.46172     -3.8156815      238.89029      167921.82     -12628.142    
    122000        8000   299.35543     -3.8157939      238.91281      167937.65     -12417.043    
    122200        8000   299.09293     -3.8157549      238.93532      167953.48     -13253.657    
    122400        8000   299.42247     -3.8157892      238.95784      167969.31     -12962.676    
    122600        8000   299.47564     -3.815786       238.98036      167985.13     -13450.513    
    122800        8000   298.8107      -3.8156866      239.00288      168000.96     -13947.82     
    123000        8000   299.87316     -3.8158076      239.02539      168016.79     -12557.313    
    123200        8000   299.8073      -3.8157823      239.04791      168032.62     -13123.917    
    123400        8000   298.97639     -3.8156549      239.07043      168048.45     -12781.278    
    123600        8000   298.83335     -3.815615       239.09295      168064.27     -12330.629    
    123800        8000   299.00349     -3.8156144      239.11547      168080.1      -13003.908    
    124000        8000   299.78682     -3.8156905      239.13798      168095.93     -12933.962    
    124200        8000   300.26547     -3.8157263      239.1605       168111.76     -12925.896    
    124400        8000   300.19308     -3.815689       239.18302      168127.59     -13204.932    
    124600        8000   300.1557      -3.8156542      239.20554      168143.42     -12207.478    
    124800        8000   300.63451     -3.8156858      239.22805      168159.24     -11975.076    
    125000        8000   300.21463     -3.815601       239.25057      168175.07     -12593.417    
    125200        8000   299.64251     -3.8154941      239.27309      168190.9      -13579.494    
    125400        8000   299.54342     -3.815444       239.29561      168206.73     -13510.611    
    125600        8000   299.98827     -3.8154611      239.31812      168222.56     -13574.217    
    125800        8000   300.11785     -3.8154342      239.34064      168238.39     -13181.094    
    126000        8000   299.92135     -3.8153622      239.36316      168254.21     -14017.422    
    126200        8000   300.42805     -3.8153759      239.38568      168270.04     -14251.933    
    126400        8000   300.28614     -3.8153011      239.4082       168285.87     -13585.813    
    126600        8000   301.28365     -3.8153705      239.43071      168301.7      -13202.58     
[...]
    276600        8000   302.02134     -3.8214008      256.31899      180172.88     -1163.8736    
    276800        8000   303.11976     -3.8215904      256.34151      180188.71     -412.89921    
    277000        8000   302.88233     -3.8216182      256.36402      180204.54      80.421538    
    277200        8000   302.75365     -3.8216701      256.38654      180220.36      1303.7618    
    277400        8000   301.77344     -3.8216242      256.40906      180236.19      1461.0032    
    277600        8000   301.87871     -3.8217284      256.43158      180252.02      795.00643    
    277800        8000   301.04852     -3.8217183      256.4541       180267.85      851.13713    
    278000        8000   300.36147     -3.8217313      256.47661      180283.68      955.25013    
    278200        8000   300.30888     -3.8218264      256.49913      180299.51      1009.3701    
    278400        8000   299.64514     -3.8218372      256.52165      180315.33      767.40753    
    278600        8000   300.31607     -3.8220105      256.54417      180331.16     -124.49479    
    278800        8000   299.52686     -3.8219799      256.56668      180346.99     -597.92224    
    279000        8000   298.75849     -3.8219358      256.5892       180362.82     -582.88327    
    279200        8000   298.37192     -3.821926       256.61172      180378.65     -1086.4186    
    279400        8000   298.07472     -3.821914       256.63424      180394.48     -1220.6624    
    279600        8000   297.68224     -3.8218785      256.65675      180410.3      -976.39999    
    279800        8000   298.94818     -3.8220496      256.67927      180426.13     -1212.6921    
    280000        8000   298.70456     -3.8220192      256.70179      180441.96     -1126.0526    
    280200        8000   299.10765     -3.822068       256.72431      180457.79      187.84283    
    280400        8000   299.32487     -3.8220913      256.74683      180473.62      533.95888    
    280600        8000   299.16525     -3.8220643      256.76934      180489.44      1481.5322    
    280800        8000   299.67191     -3.8221231      256.79186      180505.27      2349.8046    
    281000        8000   299.69716     -3.8221201      256.81438      180521.1       1687.7138    
    281200        8000   299.45895     -3.8220811      256.8369       180536.93      1352.9037    
    281400        8000   299.04177     -3.8220171      256.85941      180552.76      637.82361    
    281600        8000   299.32804     -3.8220421      256.88193      180568.59      323.18569    
    281800        8000   299.59163     -3.822062       256.90445      180584.41     -88.009806    
    282000        8000   299.18965     -3.8219933      256.92697      180600.24     -400.66461    
    282200        8000   298.25238     -3.8218524      256.94948      180616.07     -701.52705    
    282400        8000   299.26866     -3.8219603      256.972        180631.9      -1020.4975    
    282600        8000   298.93129     -3.82189        256.99452      180647.73     -1373.4108    
    282800        8000   299.49909     -3.821933       257.01704      180663.56     -872.26047    
    283000        8000   299.47122     -3.8218972      257.03956      180679.38     -1209.2452    
    283200        8000   299.48499     -3.8218637      257.06207      180695.21     -445.86243    
    283400        8000   300.21827     -3.8219225      257.08459      180711.04      470.22214    
    283600        8000   300.60473     -3.8219364      257.10711      180726.87      556.89574    
    283800        8000   300.24334     -3.8218529      257.12963      180742.7       1075.0208    
    284000        8000   300.08433     -3.8217957      257.15214      180758.52      1130.9445    
    284200        8000   300.34202     -3.8217927      257.17466      180774.35      970.2579     
    284400        8000   301.26992     -3.8218763      257.19718      180790.18      1282.4946    
    284600        8000   301.09328     -3.8218186      257.2197       180806.01      808.69289    
    284800        8000   301.3946      -3.8218224      257.24221      180821.84      243.55232    
    285000        8000   301.51391     -3.8218027      257.26473      180837.67      155.98403    
    285200        8000   301.24071     -3.8217323      257.28725      180853.49     -478.77659    
    285400        8000   300.7473      -3.8216334      257.30977      180869.32     -804.32476    
    285600        8000   300.98739     -3.8216288      257.33229      180885.15     -951.85069    
    285800        8000   300.30815     -3.8215043      257.3548       180900.98     -1732.0514    
    286000        8000   301.18497     -3.8215791      257.37732      180916.81     -1743.6302    
    286200        8000   301.66488     -3.8216023      257.39984      180932.64     -754.60129    
    286400        8000   301.65932     -3.8215637      257.42236      180948.46     -419.4309     
    286600        8000   301.97188     -3.8215671      257.44487      180964.29     -108.34911    
    286800        8000   303.06381     -3.8216732      257.46739      180980.12      1290.3741    
    287000        8000   302.00206     -3.8215049      257.48991      180995.95      447.19814    
    287200        8000   302.75226     -3.8215731      257.51243      181011.78      1068.3784    
    287400        8000   302.41141     -3.8215046      257.53494      181027.6       1844.4344    
    287600        8000   302.75554     -3.8215305      257.55746      181043.43      862.77405    
    287800        8000   303.45033     -3.8216054      257.57998      181059.26      632.78949    
    288000        8000   303.25325     -3.821571       257.6025       181075.09      1019.6091    
    288200        8000   302.93715     -3.8215287      257.62502      181090.92      175.61565    
    288400        8000   303.01901     -3.821545       257.64753      181106.75     -478.2205     
    288600        8000   302.56547     -3.8214998      257.67005      181122.57     -813.61312    
    288800        8000   301.80983     -3.8214242      257.69257      181138.4      -1674.2177    
    289000        8000   302.18418     -3.8215022      257.71509      181154.23     -1131.132     
    289200        8000   302.0873      -3.8215303      257.7376       181170.06     -389.72434    
    289400        8000   301.94505     -3.8215627      257.76012      181185.89     -631.08063    
    289600        8000   302.01769     -3.8216333      257.78264      181201.72     -777.54876    
    289800        8000   301.70391     -3.8216635      257.80516      181217.54     -121.04219    
    290000        8000   301.43119     -3.8217084      257.82768      181233.37      677.22059    
    290200        8000   301.61871     -3.8218211      257.85019      181249.2       1540.0793    
    290400        8000   300.79437     -3.8218087      257.87271      181265.03      1259.8357    
    290600        8000   300.59149     -3.8218777      257.89523      181280.86      1261.8906    
    290800        8000   300.42828     -3.8219499      257.91775      181296.69      942.62852    
    291000        8000   299.90506     -3.8219707      257.94026      181312.51      1051.4807    
    291200        8000   299.54955     -3.8220067      257.96278      181328.34      866.07582    
    291400        8000   299.19865     -3.8220356      257.9853       181344.17     -226.26263    
    291600        8000   299.44075     -3.8221311      258.00782      181360        -690.98655    
    291800        8000   298.82077     -3.8221053      258.03033      181375.83     -735.7147     
    292000        8000   298.30923     -3.8220847      258.05285      181391.65     -879.24764    
    292200        8000   298.01413     -3.8220832      258.07537      181407.48     -938.82904    
    292400        8000   297.85253     -3.8220911      258.09789      181423.31     -850.37317    
    292600        8000   298.27936     -3.8221683      258.12041      181439.14     -869.80035    
    292800        8000   297.44484     -3.8220754      258.14292      181454.97     -1202.7777    
    293000        8000   297.96994     -3.8221517      258.16544      181470.8      -627.73065    
    293200        8000   297.95531     -3.8221534      258.18796      181486.62      562.88627    
    293400        8000   298.64506     -3.8222432      258.21048      181502.45      1536.2658    
    293600        8000   299.20069     -3.8223128      258.23299      181518.28      1090.3144    
    293800        8000   298.34546     -3.8221951      258.25551      181534.11      1226.5312    
    294000        8000   299.64239     -3.8223521      258.27803      181549.94      1495.8695    
    294200        8000   299.65838     -3.8223397      258.30055      181565.77      1567.1122    
    294400        8000   298.15986     -3.8221276      258.32306      181581.59      255.22457    
    294600        8000   297.70861     -3.8220449      258.34558      181597.42      256.74232    
    294800        8000   298.33607     -3.8220961      258.3681       181613.25     -685.23832    
    295000        8000   298.02742     -3.822019       258.39062      181629.08     -829.9597     
    295200        8000   298.08922     -3.8219825      258.41314      181644.91     -854.00235    
    295400        8000   298.22511     -3.8219479      258.43565      181660.73     -619.8111     
    295600        8000   298.65787     -3.8219442      258.45817      181676.56     -98.783116    
    295800        8000   299.06748     -3.8219308      258.48069      181692.39     -442.91304    
    296000        8000   299.45762     -3.8219069      258.50321      181708.22     -328.93468    
    296200        8000   299.98433     -3.8218942      258.52572      181724.05     -539.06324    
    296400        8000   300.37174     -3.8218583      258.54824      181739.88      348.54636    
    296600        8000   301.12559     -3.8218675      258.57076      181755.7       874.88385    
    296800        8000   300.71176     -3.8217255      258.59328      181771.53      1267.1392    
    297000        8000   301.58999     -3.8217526      258.61579      181787.36      1011.7827    
    297200        8000   302.26279     -3.8217577      258.63831      181803.19      1540.7696    
    297400        8000   302.27696     -3.8216845      258.66083      181819.02      1133.8252    
    297600        8000   302.29965     -3.8216198      258.68335      181834.85      143.17515    
    297800        8000   302.43905     -3.8215786      258.70587      181850.67      652.7112     
    298000        8000   302.89408     -3.821589       258.72838      181866.5      -977.57717    
    298200        8000   303.09192     -3.8215746      258.7509       181882.33     -271.20807    
    298400        8000   302.12912     -3.8214208      258.77342      181898.16     -566.70655    
    298600        8000   303.05639     -3.8215209      258.79594      181913.99     -821.77098    
    298800        8000   302.94        -3.8214947      258.81845      181929.81     -1042.8886    
    299000        8000   303.32501     -3.8215406      258.84097      181945.64     -308.14104    
    299200        8000   303.5275      -3.8215715      258.86349      181961.47      102.50283    
    299400        8000   303.40002     -3.8215669      258.88601      181977.3       693.65704    
    299600        8000   303.29837     -3.8215724      258.90852      181993.13      603.6447     
    299800        8000   303.09433     -3.8215702      258.93104      182008.96      605.89282    
    300000        8000   303.25338     -3.8216192      258.95356      182024.78      359.96357    
    300200        8000   303.40086     -3.8216688      258.97608      182040.61      1137.9279    
    300400        8000   303.58745     -3.8217267      258.9986       182056.44      484.19062    
    300600        8000   303.17742     -3.8217087      259.02111      182072.27      1224.0398    
    300800        8000   303.48017     -3.8217846      259.04363      182088.1       741.69435    
    301000        8000   302.59188     -3.8217063      259.06615      182103.93     -186.76652    
    301200        8000   302.9832      -3.8217933      259.08867      182119.75     -718.53394    
    301400        8000   302.64223     -3.8217858      259.11118      182135.58     -837.88903    
    301600        8000   302.29068     -3.821777       259.1337       182151.41     -1126.7967    
    301800        8000   302.90459     -3.8218928      259.15622      182167.24     -482.01892    
    302000        8000   301.67953     -3.8217728      259.17874      182183.07     -881.64368    
    302200        8000   302.39614     -3.8219043      259.20125      182198.89     -281.60719    
    302400        8000   302.46196     -3.8219547      259.22377      182214.72     -565.3139     
    302600        8000   302.37029     -3.8219876      259.24629      182230.55     -465.77608    
    302800        8000   301.90635     -3.8219749      259.26881      182246.38     -470.34138    
    303000        8000   302.35779     -3.8220837      259.29133      182262.21      1243.6041    
    303200        8000   303.08898     -3.822234       259.31384      182278.04      1498.8446    
    303400        8000   302.30192     -3.8221925      259.33636      182293.86      1281.3882    
    303600        8000   303.25589     -3.8223793      259.35888      182309.69      903.67658    
    303800        8000   302.49578     -3.8223476      259.3814       182325.52      537.67563    
    304000        8000   302.74809     -3.8224482      259.40391      182341.35      690.26897    
    304200        8000   302.31919     -3.8224619      259.42643      182357.18      746.73376    
    304400        8000   301.9538      -3.8224841      259.44895      182373.01     -289.1585     
    304600        8000   300.38719     -3.8223476      259.47147      182388.83     -486.60342    
    304800        8000   300.73436     -3.822455       259.49398      182404.66     -133.84498    
    305000        8000   300.19773     -3.822445       259.5165       182420.49     -1543.6671    
    305200        8000   300.54141     -3.8225437      259.53902      182436.32     -860.55084    
    305400        8000   300.75675     -3.8226231      259.56154      182452.15     -411.04548    
    305600        8000   300.40154     -3.822626       259.58406      182467.97     -589.03995    
    305800        8000   300.48041     -3.822681       259.60657      182483.8       350.18103    
    306000        8000   300.7344      -3.8227571      259.62909      182499.63      21.177743    
    306200        8000   300.25775     -3.822736       259.65161      182515.46      807.63169    
    306400        8000   300.62735     -3.8228237      259.67413      182531.29      778.01218    
    306600        8000   299.62783     -3.8227328      259.69664      182547.12      856.91128    
    306800        8000   300.4077      -3.8228699      259.71916      182562.94      831.55364    
    307000        8000   300.08976     -3.8228632      259.74168      182578.77      416.978      
    307200        8000   300.20097     -3.8229093      259.7642       182594.6       373.35698    
    307400        8000   299.60505     -3.8228619      259.78672      182610.43     -691.86845    
    307600        8000   299.9923      -3.8229385      259.80923      182626.26      484.11292    
    307800        8000   299.17096     -3.822859       259.83175      182642.09     -531.88255    
    308000        8000   299.72873     -3.822955       259.85427      182657.91     -319.03202    
    308200        8000   299.40443     -3.8229367      259.87679      182673.74     -924.21146    
    308400        8000   300.54228     -3.8231068      259.8993       182689.57     -1178.5062    
    308600        8000   300.19558     -3.8230853      259.92182      182705.4      -806.22797    
    308800        8000   301.18344     -3.8232375      259.94434      182721.23      163.97277    
    309000        8000   300.92614     -3.8232317      259.96686      182737.06      98.329961    
    309200        8000   300.84128     -3.8232505      259.98937      182752.88      1352.8906    
    309400        8000   300.7405      -3.8232715      260.01189      182768.71      623.76285    
    309600        8000   299.62583     -3.8231632      260.03441      182784.54      672.5537     
    309800        8000   300.95203     -3.8233726      260.05693      182800.37      892.25692    
    310000        8000   299.86878     -3.8232741      260.07945      182816.2       866.37458    
    310200        8000   300.29117     -3.823374       260.10196      182832.02      452.99396    
    310400        8000   300.32474     -3.8234265      260.12448      182847.85      1029.3277    
    310600        8000   299.84399     -3.8234173      260.147        182863.68     -42.405565    
    310800        8000   299.91722     -3.8234826      260.16952      182879.51      16.812944    
    311000        8000   299.6275      -3.8235053      260.19203      182895.34     -19.016301    
    311200        8000   298.68055     -3.8234482      260.21455      182911.17     -773.20869    
    311400        8000   298.71733     -3.8235221      260.23707      182926.99     -706.605      
    311600        8000   299.16287     -3.8236544      260.25959      182942.82     -352.91074    
    311800        8000   298.72553     -3.8236779      260.2821       182958.65     -943.81594    
    312000        8000   298.37889     -3.8237173      260.30462      182974.48     -90.99596     
    312200        8000   298.17359     -3.823781       260.32714      182990.31     -62.385829    
    312400        8000   297.3855      -3.8237727      260.34966      183006.14      19.617459    
    312600        8000   296.45932     -3.8237479      260.37218      183021.96      341.68181    
    312800        8000   296.87917     -3.8238965      260.39469      183037.79      537.28079    
    313000        8000   296.12654     -3.8238901      260.41721      183053.62     -90.001694    
    313200        8000   297.09394     -3.8240999      260.43973      183069.45      1101.8417    
    313400        8000   296.35239     -3.8240825      260.46225      183085.28      986.20855    
    313600        8000   296.10977     -3.8241199      260.48476      183101.1       1070.3825    
    313800        8000   295.8259      -3.8241408      260.50728      183116.93      449.19453    
    314000        8000   295.61668     -3.8241589      260.5298       183132.76     -46.806979    
    314200        8000   296.17834     -3.8242639      260.55232      183148.59     -385.6648     
    314400        8000   294.87083     -3.8241145      260.57483      183164.42     -544.6631     
    314600        8000   295.46289     -3.8241981      260.59735      183180.25     -1327.1808    
    314800        8000   295.73035     -3.824226       260.61987      183196.07     -599.17337    
    315000        8000   295.38308     -3.8241634      260.64239      183211.9      -614.90203    
    315200        8000   295.57467     -3.8241595      260.66491      183227.73     -1053.1942    
    315400        8000   295.90166     -3.8241617      260.68742      183243.56      37.881698    
    315600        8000   296.1349      -3.8241426      260.70994      183259.39     -772.56324    
    315800        8000   297.49664     -3.8242598      260.73246      183275.22     -98.096033    
    316000        8000   296.90585     -3.8241183      260.75498      183291.04      1022.006     
    316200        8000   297.49105     -3.824125       260.77749      183306.87      1172.3814    
    316400        8000   298.11181     -3.8241348      260.80001      183322.7       526.9212     
    316600        8000   298.86353     -3.8241626      260.82253      183338.53      1187.2413    
    316800        8000   299.65942     -3.8242038      260.84505      183354.36      82.241639    
