1661
 Atoms. Timestep: 25000
5 0 16.293 -2.7155
5 2.7155 13.5775 -2.7155
5 1.35775 17.6508 -1.35775
5 4.07325 14.9352 -1.35775
5 5.431 16.293 -2.7155
5 8.1465 13.5775 -2.7155
5 6.78875 17.6508 -1.35775
5 9.50425 14.9352 -1.35775
5 10.862 16.293 -2.7155
5 13.5775 13.5775 -2.7155
5 12.2197 17.6508 -1.35775
5 14.9352 14.9352 -1.35775
5 16.293 16.293 -2.7155
5 19.0085 13.5775 -2.7155
5 17.6507 17.6508 -1.35775
5 20.3663 14.9352 -1.35775
5 21.724 16.293 -2.7155
5 24.4395 13.5775 -2.7155
5 23.0817 17.6508 -1.35775
5 25.7973 14.9352 -1.35775
5 27.155 16.293 -2.7155
5 29.8705 13.5775 -2.7155
5 28.5128 17.6508 -1.35775
5 31.2282 14.9352 -1.35775
5 32.586 16.293 -2.7155
5 35.3015 13.5775 -2.7155
5 33.9438 17.6508 -1.35775
5 36.6593 14.9352 -1.35775
5 38.017 16.293 -2.7155
5 40.7325 13.5775 -2.7155
5 39.3747 17.6508 -1.35775
5 42.0902 14.9352 -1.35775
5 43.448 16.293 -2.7155
5 46.1635 13.5775 -2.7155
5 44.8058 17.6508 -1.35775
5 47.5213 14.9352 -1.35775
4 48.879 2.7155 -2.7155
4 51.5945 0 -2.7155
4 50.2368 4.07325 -1.35775
4 52.9522 1.35775 -1.35775
4 54.31 2.7155 -2.7155
4 57.0255 0 -2.7155
4 55.6677 4.07325 -1.35775
4 58.3833 1.35775 -1.35775
4 59.741 2.7155 -2.7155
4 62.4565 0 -2.7155
4 61.0988 4.07325 -1.35775
4 63.8143 1.35775 -1.35775
4 65.172 2.7155 -2.7155
4 67.8875 0 -2.7155
4 66.5298 4.07325 -1.35775
4 69.2452 1.35775 -1.35775
4 70.603 2.7155 -2.7155
4 73.3185 0 -2.7155
4 71.9608 4.07325 -1.35775
4 74.6762 1.35775 -1.35775
4 76.034 2.7155 -2.7155
4 78.7495 0 -2.7155
4 77.3918 4.07325 -1.35775
4 80.1073 1.35775 -1.35775
4 81.465 2.7155 -2.7155
4 84.1805 0 -2.7155
4 82.8227 4.07325 -1.35775
4 85.5383 1.35775 -1.35775
4 86.896 2.7155 -2.7155
4 89.6115 0 -2.7155
4 88.2537 4.07325 -1.35775
4 90.9693 1.35775 -1.35775
4 92.327 2.7155 -2.7155
4 95.0425 0 -2.7155
4 93.6847 4.07325 -1.35775
4 96.4002 1.35775 -1.35775
4 97.758 2.7155 -2.7155
4 100.474 0 -2.7155
4 99.1158 4.07325 -1.35775
4 101.831 1.35775 -1.35775
4 103.189 2.7155 -2.7155
4 105.904 0 -2.7155
4 104.547 4.07325 -1.35775
4 107.262 1.35775 -1.35775
4 108.62 2.7155 -2.7155
5 0 21.724 -2.71543
5 2.7155 19.0085 -2.7155
5 1.35775 23.0818 -1.43774
5 4.07325 20.3663 -1.35775
5 5.431 21.724 2.70864
5 8.1465 19.0085 -2.7155
5 6.78875 23.0818 -1.38696
5 9.50425 20.3663 -1.35775
5 10.862 21.724 2.70796
5 13.5775 19.0085 -2.7155
5 12.2197 23.0818 -1.34508
5 14.9352 20.3663 -1.35775
5 16.293 21.724 2.71168
5 19.0085 19.0085 -2.7155
5 17.6507 23.0818 -1.3281
5 20.3663 20.3663 -1.35775
5 21.724 21.724 -2.69657
5 24.4395 19.0085 -2.7155
5 23.0817 23.0818 -1.30956
5 25.7973 20.3663 -1.35775
5 27.155 21.724 2.69053
5 29.8705 19.0085 -2.7155
5 28.5128 23.0818 -1.30363
5 31.2282 20.3663 -1.35775
5 32.586 21.724 -2.70278
5 35.3015 19.0085 -2.7155
5 33.9438 23.0818 -1.39425
5 36.6593 20.3663 -1.35775
5 38.017 21.724 2.70511
5 40.7325 19.0085 -2.7155
5 39.3747 23.0818 -1.34844
5 42.0902 20.3663 -1.35775
5 43.448 21.724 2.71351
5 46.1635 19.0085 -2.7155
5 44.8058 23.0818 -1.28321
5 47.5213 20.3663 -1.35775
1 48.9158 22.2197 -2.22077
4 51.5945 5.431 -2.7155
1 52.7495 11.1592 -2.64022
4 52.9522 6.78875 -1.35775
1 54.37 8.15097 2.59256
4 57.0255 5.431 -2.7155
1 55.749 9.44951 -1.58733
4 58.3833 6.78875 -1.35775
1 59.618 8.18615 -2.80625
4 62.4565 5.431 -2.7155
1 60.8207 9.71738 -1.35664
4 63.8143 6.78875 -1.35775
1 65.0586 8.20379 -2.79875
4 67.8875 5.431 -2.7155
1 66.347 9.63212 -1.38549
4 69.2452 6.78875 -1.35775
1 70.4773 8.2421 -2.81255
4 73.3185 5.431 -2.7155
1 71.6428 9.72211 -1.29599
4 74.6762 6.78875 -1.35775
1 75.8771 8.31198 2.73612
4 78.7495 5.431 -2.7155
1 77.046 9.71647 -1.24709
4 80.1073 6.78875 -1.35775
1 81.4019 8.24823 2.71452
4 84.1805 5.431 -2.7155
1 82.5502 9.64859 -1.2399
4 85.5383 6.78875 -1.35775
1 86.7538 8.15816 2.67551
4 89.6115 5.431 -2.7155
1 87.9212 9.5733 -1.37694
4 90.9693 6.78875 -1.35775
1 92.2687 8.2601 2.69426
4 95.0425 5.431 -2.7155
1 93.5623 9.61396 -1.38657
4 96.4002 6.78875 -1.35775
1 97.6326 8.21188 2.5682
4 100.474 5.431 -2.7155
1 98.8599 9.65944 -1.36573
4 101.831 6.78875 -1.35775
1 103.11 8.19014 2.67857
4 105.904 5.431 -2.7155
1 104.302 9.62206 -1.30598
4 107.262 6.78875 -1.35775
1 108.392 8.35396 -2.81819
5 0 27.155 2.63198
5 2.7155 24.4395 -2.66834
5 1.35775 28.5128 -1.41954
5 4.07325 25.7973 -1.41133
5 5.431 27.155 2.69468
5 8.1465 24.4395 2.65187
5 6.78875 28.5128 -1.37557
5 9.50425 25.7973 -1.35301
5 10.862 27.155 -2.70665
5 13.5775 24.4395 2.70071
5 12.2197 28.5128 -1.28115
5 14.9352 25.7973 -1.35625
5 16.293 27.155 -2.66331
5 19.0085 24.4395 -2.66278
5 17.6507 28.5128 -1.27732
5 20.3663 25.7973 -1.2992
5 21.724 27.155 -2.66359
5 24.4395 24.4395 -2.70287
5 23.0817 28.5128 -1.19674
5 25.7973 25.7973 -1.26974
5 27.155 27.155 -2.59502
5 29.8705 24.4395 -2.65836
5 28.5128 28.5128 -1.25159
5 31.2282 25.7973 -1.34759
5 32.586 27.155 -2.65618
5 35.3015 24.4395 2.69208
5 33.9438 28.5128 -1.36378
5 36.6593 25.7973 -1.41571
5 38.017 27.155 2.63976
5 40.7325 24.4395 2.70688
5 39.3747 28.5128 -1.47285
5 42.0902 25.7973 -1.3132
5 43.448 27.155 -2.65676
5 46.1635 24.4395 -2.63974
5 44.8058 28.5128 -1.32647
5 47.5213 25.7973 -1.28961
1 49.0733 26.7873 2.50101
1 53.3762 12.793 0.920567
1 50.2118 27.5908 -0.918229
1 55.376 13.7694 1.64721
1 54.1895 21.484 -1.8194
1 56.8935 10.866 2.30974
1 54.4484 17.7403 -0.0419502
1 57.8347 12.4277 -1.52874
1 58.9406 14.513 2.79903
1 62.0631 11.2151 2.5978
1 60.2061 16.0464 -1.06866
1 63.3143 12.6505 -1.36958
1 64.5462 14.2165 2.68689
1 67.5708 11.1046 2.58846
1 65.7725 15.8609 -1.36646
1 68.7466 12.6479 -1.25635
1 69.8781 14.1756 2.76539
1 72.9008 11.1916 -2.65059
1 71.1451 15.6472 -1.27874
1 74.0767 12.68 -1.17184
1 75.2198 14.206 -2.62234
1 78.2759 11.177 -2.66315
1 76.5177 15.5717 -1.17072
1 79.4613 12.627 -1.22308
1 80.7213 14.0034 -2.66845
1 83.7804 11.0302 2.71134
1 82.0315 15.407 -1.12945
1 85.03 12.3602 -1.19331
1 86.285 13.7994 2.79104
1 89.2335 11.0152 2.68134
1 87.568 15.2631 -1.3318
1 90.6094 12.4142 -1.34347
1 91.8494 13.8792 -2.70174
1 94.8165 11.0563 2.7027
1 93.0144 15.1729 -1.16043
1 95.9607 12.4429 -1.30504
1 97.2554 13.7696 -2.71166
1 100.14 10.9835 2.63917
1 98.5187 15.1356 -1.40919
1 101.376 12.3782 -1.35417
1 102.655 13.79 2.63953
1 105.526 10.9679 2.59617
1 103.985 15.1841 -1.46917
1 106.924 12.4485 -1.61117
1 108.259 13.9084 2.47041
5 0 32.586 -2.68297
5 2.7155 29.8705 2.66817
5 1.35775 33.9438 -1.35284
5 4.07325 31.2283 -1.38681
5 5.431 32.586 -2.69603
5 8.1465 29.8705 -2.67038
5 6.78875 33.9438 -1.36454
5 9.50425 31.2283 -1.3325
5 10.862 32.586 -2.69503
5 13.5775 29.8705 -2.67287
5 12.2197 33.9438 -1.38315
5 14.9352 31.2283 -1.25766
5 16.293 32.586 -2.60809
5 19.0085 29.8705 -2.61029
5 17.6507 33.9438 -1.26276
5 20.3663 31.2283 -1.26122
5 21.724 32.586 -2.56915
5 24.4395 29.8705 -2.60442
5 23.0817 33.9438 -1.29124
5 25.7973 31.2283 -1.27091
5 27.155 32.586 -2.61904
5 29.8705 29.8705 -2.60565
5 28.5128 33.9438 -1.34844
5 31.2282 31.2283 -1.27871
5 32.586 32.586 -2.64748
5 35.3015 29.8705 -2.70053
5 33.9438 33.9438 -1.25023
5 36.6593 31.2283 -1.34704
5 38.017 32.586 2.67259
5 40.7325 29.8705 2.63251
5 39.3747 33.9438 -1.36259
5 42.0902 31.2283 -1.39646
5 43.448 32.586 2.68707
5 46.1635 29.8705 2.71548
5 44.8058 33.9438 -1.35067
5 47.5213 31.2283 -1.28631
1 48.8411 32.4407 2.67676
1 51.2322 28.405 2.3122
1 50.6172 33.3664 -1.42722
1 52.4733 28.8926 -1.05484
1 55.2245 26.9261 1.05347
1 55.8529 18.209 -2.03216
1 54.9367 28.9781 -0.353288
1 57.3777 19.5427 -1.01558
1 58.5695 20.8321 -2.52939
1 61.4425 17.4871 -2.62364
1 59.8476 22.2721 -0.973918
1 62.6719 18.9396 -1.23596
1 63.8835 20.4248 -2.75818
1 66.992 17.2782 -2.88454
1 65.2397 21.8562 -1.28095
1 68.0426 18.7243 -1.3561
1 69.2983 20.1712 -2.73879
1 72.3388 17.204 2.68998
1 70.6485 21.656 -1.28889
1 73.5666 18.6413 -1.1991
1 74.8558 19.9509 -2.69763
1 77.7894 16.9753 -2.66959
1 76.1534 21.2687 -1.21479
1 79.1153 18.2802 -1.20454
1 80.3367 19.7123 -2.67387
1 83.2984 16.7569 2.79602
1 81.7019 21.0654 -1.21059
1 84.6557 18.0752 -1.22361
1 85.9279 19.3085 -2.78844
1 88.7999 16.6395 -2.76175
1 87.2156 20.7261 -1.35499
1 90.0431 17.9584 -1.32856
1 91.3001 19.3377 2.76861
1 94.2471 16.5218 -2.67663
1 92.7046 20.5946 -1.24254
1 95.4843 17.8305 -1.2809
1 96.8916 19.146 2.74938
1 99.8094 16.463 2.55263
1 98.1476 20.5802 -1.43377
1 101.042 17.8462 -1.41732
1 102.38 19.1885 2.62592
1 105.346 16.5019 2.51249
1 103.718 20.5194 -1.41553
1 106.489 17.8344 -1.45925
1 107.769 19.2076 -2.77912
5 0 38.017 -2.60516
5 2.7155 35.3015 -2.61144
5 1.35775 39.3748 -1.32667
5 4.07325 36.6593 -1.27164
5 5.431 38.017 -2.60767
5 8.1465 35.3015 2.70293
5 6.78875 39.3748 -1.25386
5 9.50425 36.6593 -1.3714
5 10.862 38.017 2.66431
5 13.5775 35.3015 2.68096
5 12.2197 39.3748 -1.34487
5 14.9352 36.6593 -1.40261
5 16.293 38.017 -2.70308
5 19.0085 35.3015 -2.61801
5 17.6507 39.3748 -1.35988
5 20.3663 36.6593 -1.29193
5 21.724 38.017 -2.70039
5 24.4395 35.3015 -2.65922
5 23.0817 39.3748 -1.33539
5 25.7973 36.6593 -1.31983
5 27.155 38.017 -2.6812
5 29.8705 35.3015 -2.66451
5 28.5128 39.3748 -1.28017
5 31.2282 36.6593 -1.31945
5 32.586 38.017 -2.67376
5 35.3015 35.3015 -2.61113
5 33.9438 39.3748 -1.32215
5 36.6593 36.6593 -1.33108
5 38.017 38.017 -2.71374
5 40.7325 35.3015 2.61908
5 39.3747 39.3748 -1.37859
5 42.0902 36.6593 -1.3818
5 43.448 38.017 2.67422
5 46.1635 35.3015 -2.68487
5 44.8058 39.3748 -1.30629
5 47.5213 36.6593 -1.37882
1 48.8189 37.8476 2.53212
1 51.8987 34.4528 2.25752
1 50.2898 38.6881 -1.10449
1 52.5498 34.1075 -0.00821194
1 53.7044 36.094 -2.47423
1 55.8202 24.7559 2.51731
1 54.9447 34.0398 -0.598258
1 56.7254 25.6138 -0.737644
1 58.746 26.6083 -1.68393
1 61.1535 23.7857 -2.49518
1 59.7108 29.2 -0.474382
1 62.3302 25.261 -1.07796
1 63.5939 26.7655 -2.64406
1 66.468 23.3664 -2.78582
1 64.8651 28.1557 -1.13873
1 67.8857 24.6737 -1.23013
1 69.1563 26.0965 -2.52352
1 71.9432 23.0078 -2.60645
1 70.3928 27.447 -1.05288
1 73.3379 24.2649 -1.1096
1 74.7189 25.6182 -2.58498
1 77.4982 22.5901 -2.60693
1 76.0644 26.9425 -1.13665
1 78.8752 23.9029 -1.16927
1 80.1886 25.2386 2.81187
1 83.0203 22.2874 -2.62339
1 81.6323 26.4856 -1.32089
1 84.3602 23.6471 -1.29307
1 85.7078 24.906 2.7646
1 88.4618 22.0956 -2.71299
1 87.0443 26.2785 -1.33688
1 89.8109 23.4215 -1.34703
1 91.1776 24.7075 -2.81988
1 94.0197 21.8835 -2.71471
1 92.5227 25.9991 -1.32047
1 95.4106 23.3019 -1.41268
1 96.856 24.6029 -2.67257
1 99.5709 21.9321 2.62146
1 98.2701 25.9671 -1.32542
1 100.943 23.3076 -1.46165
1 102.323 24.6924 -2.72544
1 104.98 21.8723 -2.73352
1 103.687 25.9664 -1.23151
1 106.336 23.1346 -1.26804
1 107.736 24.4717 -2.58212
5 0 43.448 -2.61255
5 2.7155 40.7325 -2.65371
5 1.35775 44.8058 -1.27513
5 4.07325 42.0903 -1.30261
5 5.431 43.448 -2.64002
5 8.1465 40.7325 -2.59984
5 6.78875 44.8058 -1.3368
5 9.50425 42.0903 -1.27458
5 10.862 43.448 -2.67215
5 13.5775 40.7325 -2.69727
5 12.2197 44.8058 -1.34555
5 14.9352 42.0903 -1.32603
5 16.293 43.448 -2.69421
5 19.0085 40.7325 -2.66204
5 17.6507 44.8058 -1.3507
5 20.3663 42.0903 -1.34382
5 21.724 43.448 -2.62154
5 24.4395 40.7325 -2.65716
5 23.0817 44.8058 -1.2423
5 25.7973 42.0903 -1.32218
5 27.155 43.448 -2.65781
5 29.8705 40.7325 -2.61485
5 28.5128 44.8058 -1.29348
5 31.2282 42.0903 -1.28748
5 32.586 43.448 2.67894
5 35.3015 40.7325 2.69709
5 33.9438 44.8058 -1.35029
5 36.6593 42.0903 -1.40766
5 38.017 43.448 -2.6921
5 40.7325 40.7325 -2.68114
5 39.3747 44.8058 -1.34217
5 42.0902 42.0903 -1.32669
5 43.448 43.448 -2.70833
5 46.1635 40.7325 -2.69833
5 44.8058 44.8058 -1.35261
5 47.5213 42.0903 -1.25627
1 48.7441 43.2972 2.80773
1 51.2126 39.667 2.28858
1 50.3285 44.4108 -1.28274
1 52.2886 40.055 -0.878168
1 53.6145 40.4803 2.42033
1 55.5108 34.4412 -2.9734
1 54.7601 40.6289 -0.875165
1 56.5625 35.7945 -0.912257
1 57.6177 35.6391 2.33167
1 60.9302 30.0793 -2.46522
1 59.0872 36.0878 -1.16916
1 61.9699 31.9749 -1.03988
1 63.2746 33.0756 -2.71304
1 66.2802 29.5593 -2.59309
1 64.7932 34.3173 -1.18299
1 67.604 30.8009 -1.05251
1 68.9449 32.0334 -2.51123
1 71.7907 28.7075 -2.42516
1 70.4164 33.2255 -1.06229
1 73.1445 30.0972 -1.06714
1 74.6277 31.2797 -2.48314
1 77.5613 28.1999 -2.65301
1 76.19 32.5307 -1.15479
1 78.9399 29.5028 -1.39186
1 80.2991 30.9214 -2.75778
1 83.0226 27.8144 -2.72924
1 81.6929 32.203 -1.35283
1 84.3715 29.1644 -1.32388
1 85.851 30.4808 2.80724
1 88.4608 27.5647 2.69625
1 87.3143 31.7828 -1.30377
1 89.9264 28.9028 -1.28647
1 91.418 30.1294 2.77952
1 93.9698 27.2546 2.7749
1 92.8023 31.4824 -1.31043
1 95.4345 28.6047 -1.36708
1 96.8337 30.0479 2.67184
1 99.6041 27.3348 2.70446
1 98.2037 31.331 -1.33257
1 100.939 28.6721 -1.35309
1 102.269 30.0936 -2.69682
1 105.053 27.2913 -2.63131
1 103.523 31.4122 -1.34547
1 106.339 28.7112 -1.18836
1 107.661 30.0026 2.8635
5 0 48.879 -2.63206
5 2.7155 46.1635 -2.62245
5 1.35775 50.2368 -1.23887
5 4.07325 47.5213 -1.37622
5 5.431 48.879 -2.70393
5 8.1465 46.1635 -2.64732
5 6.78875 50.2368 -1.31106
5 9.50425 47.5213 -1.31103
5 10.862 48.879 -2.71065
5 13.5775 46.1635 -2.69663
5 12.2197 50.2368 -1.33369
5 14.9352 47.5213 -1.42543
5 16.293 48.879 2.65473
5 19.0085 46.1635 -2.70883
5 17.6507 50.2368 -1.40294
5 20.3663 47.5213 -1.3188
5 21.724 48.879 -2.67508
5 24.4395 46.1635 -2.635
5 23.0817 50.2368 -1.29482
5 25.7973 47.5213 -1.25273
5 27.155 48.879 -2.64535
5 29.8705 46.1635 -2.66406
5 28.5128 50.2368 -1.30055
5 31.2282 47.5213 -1.34962
5 32.586 48.879 -2.65732
5 35.3015 46.1635 2.68513
5 33.9438 50.2368 -1.29404
5 36.6593 47.5213 -1.30892
5 38.017 48.879 -2.65154
5 40.7325 46.1635 2.71404
5 39.3747 50.2368 -1.32387
5 42.0902 47.5213 -1.3825
5 43.448 48.879 2.69512
5 46.1635 46.1635 -2.68039
5 44.8058 50.2368 -1.31034
5 47.5213 47.5213 -1.29656
1 48.9615 48.5875 2.52282
1 51.5617 44.8037 2.08403
1 50.3818 49.4861 -1.18702
1 52.7597 45.1479 -1.12768
1 54.1211 45.3434 2.20079
1 56.1155 40.5604 2.29627
1 55.2611 45.6654 -0.949912
1 57.4055 40.9981 -0.968594
1 58.5449 41.3344 2.2669
1 60.5775 36.9496 2.596
1 59.7314 42.0342 -1.19163
1 62.1359 37.8735 -1.2609
1 63.7111 38.8639 2.69996
1 66.3654 35.427 -2.60287
1 65.3176 39.9531 -1.19428
1 67.9361 36.5889 -1.128
1 69.4428 37.8039 -2.56165
1 71.9598 34.4021 -2.40791
1 70.9398 38.89 -1.0664
1 73.4382 35.5775 -1.08208
1 74.9752 36.7663 -2.4556
1 77.653 33.7765 -2.62482
1 76.5241 38.101 -1.14709
1 79.0388 35.2038 -1.27914
1 80.5412 36.3668 -2.72035
1 83.1656 33.4335 -2.79731
1 82.001 37.5513 -1.24713
1 84.568 34.6433 -1.38405
1 86.0433 35.8623 -2.70589
1 88.8759 33.019 2.80425
1 87.5573 37.0479 -1.28754
1 90.293 34.2804 -1.28899
1 91.734 35.6111 -2.68518
1 94.1636 32.8375 2.70272
1 93.19 36.9652 -1.38482
1 95.5914 34.1465 -1.39592
1 97.1012 35.4509 -2.71286
1 99.5703 32.5968 -2.62764
1 98.3971 36.7435 -1.30347
1 100.984 34.0281 -1.40148
1 102.404 35.3787 -2.66422
1 104.926 32.7002 -2.65141
1 103.821 36.647 -1.34065
1 106.449 33.9008 -1.32645
1 107.774 35.1386 2.68043
5 0 54.31 -2.7087
5 2.7155 51.5945 -2.66017
5 1.35775 55.6678 -1.34666
5 4.07325 52.9523 -1.33436
5 5.431 54.31 -2.70139
5 8.1465 51.5945 2.67524
5 6.78875 55.6678 -1.38754
5 9.50425 52.9523 -1.33276
5 10.862 54.31 2.70549
5 13.5775 51.5945 2.70846
5 12.2197 55.6678 -1.36249
5 14.9352 52.9523 -1.42273
5 16.293 54.31 2.63609
5 19.0085 51.5945 2.69188
5 17.6507 55.6678 -1.39416
5 20.3663 52.9523 -1.36012
5 21.724 54.31 -2.64803
5 24.4395 51.5945 -2.61737
5 23.0817 55.6678 -1.29583
5 25.7973 52.9523 -1.29132
5 27.155 54.31 -2.6977
5 29.8705 51.5945 -2.6352
5 28.5128 55.6678 -1.33573
5 31.2282 52.9523 -1.2468
5 32.586 54.31 2.70267
5 35.3015 51.5945 -2.67157
5 33.9438 55.6678 -1.43523
5 36.6593 52.9523 -1.34332
5 38.017 54.31 -2.70054
5 40.7325 51.5945 -2.63009
5 39.3747 55.6678 -1.3665
5 42.0902 52.9523 -1.31323
5 43.448 54.31 -2.69775
5 46.1635 51.5945 -2.69548
5 44.8058 55.6678 -1.38377
5 47.5213 52.9523 -1.43507
1 48.8055 53.8863 2.38672
1 51.6829 49.8781 2.17912
1 50.1436 54.5918 -1.22532
1 52.7515 50.2705 -0.989322
1 53.991 50.6972 2.25265
1 56.5223 46.0041 2.09181
1 55.0844 51.1548 -1.00822
1 57.4925 46.4897 -0.999814
1 58.9286 47.0614 2.6232
1 61.3841 42.8387 2.7021
1 60.4666 47.6485 -0.965203
1 62.8514 43.8634 -1.21035
1 64.5131 44.6293 -2.7462
1 66.8234 41.1068 2.78649
1 66.1056 45.6258 -1.09958
1 68.3959 42.079 -1.17507
1 70.019 43.0931 -2.5927
1 72.4944 40.0113 -2.47542
1 71.534 44.385 -1.19817
1 74.0769 41.1621 -1.05935
1 75.4787 42.407 -2.53363
1 77.9806 39.3525 -2.52821
1 77.0906 43.554 -1.2076
1 79.5654 40.5686 -1.1829
1 81.0313 41.7786 -2.57077
1 83.4741 38.7622 -2.57538
1 82.546 42.9589 -1.19927
1 85.028 40.0724 -1.2022
1 86.4332 41.2694 -2.66359
1 89.0977 38.349 -2.66693
1 88.0536 42.4297 -1.28344
1 90.5532 39.6148 -1.36763
1 91.9693 40.9403 -2.71616
1 94.6318 38.2479 -2.72309
1 93.3347 42.3788 -1.37609
1 96.0667 39.5987 -1.42902
1 97.4513 40.899 -2.7543
1 99.8566 38.0273 2.87428
1 98.6978 42.2016 -1.27797
1 101.316 39.3835 -1.32939
1 102.771 40.6806 2.7822
1 105.262 37.8553 2.75921
1 104.263 42.0448 -1.32847
1 106.691 39.1552 -1.42255
1 108.161 40.374 -2.78158
5 0 59.741 2.69626
5 2.7155 57.0255 2.70377
5 1.35775 61.0988 -1.43462
5 4.07325 58.3833 -1.3614
5 5.431 59.741 2.66903
5 8.1465 57.0255 2.69325
5 6.78875 61.0988 -1.42813
5 9.50425 58.3833 -1.39917
5 10.862 59.741 -2.69138
5 13.5775 57.0255 2.6786
5 12.2197 61.0988 -1.32651
5 14.9352 58.3833 -1.41305
5 16.293 59.741 2.68531
5 19.0085 57.0255 2.6318
5 17.6507 61.0988 -1.37599
5 20.3663 58.3833 -1.34193
5 21.724 59.741 -2.70744
5 24.4395 57.0255 -2.69157
5 23.0817 61.0988 -1.42461
5 25.7973 58.3833 -1.32762
5 27.155 59.741 -2.69109
5 29.8705 57.0255 2.68948
5 28.5128 61.0988 -1.34445
5 31.2282 58.3833 -1.39488
5 32.586 59.741 2.62298
5 35.3015 57.0255 2.67038
5 33.9438 61.0988 -1.44312
5 36.6593 58.3833 -1.34959
5 38.017 59.741 2.65295
5 40.7325 57.0255 2.67151
5 39.3747 61.0988 -1.39945
5 42.0902 58.3833 -1.42137
5 43.448 59.741 2.64212
5 46.1635 57.0255 2.68335
5 44.8058 61.0988 -1.39413
5 47.5213 58.3833 -1.3556
1 49.1221 59.3807 2.52502
1 51.7297 55.1458 2.62708
1 51.0978 59.3374 -1.4519
1 53.254 55.3203 -1.06497
1 55.0096 55.6343 -2.60007
1 56.8014 51.3837 -2.57178
1 56.7057 55.9798 -1.06539
1 58.3563 51.9072 -0.93581
1 60.0986 52.5207 -2.34614
1 62.1821 48.5226 -2.45275
1 61.7902 53.1923 -0.867944
1 63.8005 49.3716 -0.985249
1 65.4148 50.1544 -2.45866
1 67.72 46.5574 -2.53382
1 67.0672 51.0767 -1.10544
1 69.2364 47.6394 -1.10246
1 70.8 48.6782 -2.53756
1 73.1403 45.5026 -2.57368
1 72.3912 49.7874 -1.22289
1 74.7007 46.5861 -1.20029
1 76.2514 47.7016 -2.62052
1 78.6303 44.7279 -2.5623
1 77.7925 48.8403 -1.2984
1 80.2143 45.931 -1.3563
1 81.6276 47.127 -2.73062
1 83.9398 44.2034 -2.60095
1 83.016 48.3693 -1.28644
1 85.5331 45.3251 -1.28729
1 86.9168 46.5593 -2.63865
1 89.4176 43.7339 -2.62712
1 88.3365 47.9374 -1.35459
1 90.7926 45.0661 -1.24898
1 92.2382 46.313 -2.6906
1 94.8422 43.6427 -2.73641
1 93.7137 47.6232 -1.37705
1 96.267 44.918 -1.36457
1 97.6907 46.2563 -2.6698
1 100.153 43.4004 2.75854
1 99.1541 47.5346 -1.37802
1 101.658 44.7066 -1.35255
1 103.098 46.0602 -2.72623
1 105.689 43.3181 -2.67904
1 104.502 47.2453 -1.28303
1 107.097 44.5499 -1.3518
1 108.549 45.7896 -2.67669
5 0 65.172 2.57754
5 2.7155 62.4565 2.64053
5 1.35775 66.5298 -1.64768
5 4.07325 63.8143 -1.50163
5 5.431 65.172 2.56851
5 8.1465 62.4565 2.62507
5 6.78875 66.5298 -1.42812
5 9.50425 63.8143 -1.37979
5 10.862 65.172 -2.69272
5 13.5775 62.4565 -2.66952
5 12.2197 66.5298 -1.39708
5 14.9352 63.8143 -1.43616
5 16.293 65.172 -2.69633
5 19.0085 62.4565 2.68719
5 17.6507 66.5298 -1.33896
5 20.3663 63.8143 -1.34394
5 21.724 65.172 -2.69455
5 24.4395 62.4565 2.68998
5 23.0817 66.5298 -1.26596
5 25.7973 63.8143 -1.39947
5 27.155 65.172 2.63398
5 29.8705 62.4565 2.63662
5 28.5128 66.5298 -1.50085
5 31.2282 63.8143 -1.47108
5 32.586 65.172 2.6301
5 35.3015 62.4565 2.61251
5 33.9438 66.5298 -1.50733
5 36.6593 63.8143 -1.47034
5 38.017 65.172 2.59325
5 40.7325 62.4565 2.62687
5 39.3747 66.5298 -1.5399
5 42.0902 63.8143 -1.42688
5 43.448 65.172 2.68125
5 46.1635 62.4565 -2.71417
5 44.8058 66.5298 -1.3795
5 47.5213 63.8143 -1.3201
1 49.9118 63.1792 -2.06233
1 53.3196 59.3564 2.54649
1 51.215 64.0594 -0.263661
1 54.8568 60.0158 -1.13753
1 57.0492 60.1133 -2.18563
1 58.5414 56.3938 -2.47867
1 58.6104 60.8555 -0.559263
1 60.1508 56.9133 -0.90448
1 61.8572 57.6683 -2.26117
1 63.4335 53.8435 -2.39706
1 63.5875 58.2983 -0.841412
1 65.0889 54.6531 -0.945915
1 66.8317 55.4578 -2.36492
1 68.6627 52.0584 -2.50348
1 68.4161 56.5008 -1.07673
1 70.267 53.0432 -1.18802
1 71.775 54.0734 -2.6851
1 73.8994 50.8493 -2.68801
1 73.3299 55.1375 -1.31863
1 75.3959 51.9112 -1.26939
1 76.7887 53.1018 -2.67323
1 79.2121 50.0796 -2.66605
1 78.2506 54.3369 -1.42908
1 80.6492 51.3823 -1.38706
1 82.0339 52.5528 2.66307
1 84.4342 49.56 2.83586
1 83.4238 53.795 -1.37251
1 85.9129 50.7596 -1.25323
1 87.3215 52.1935 2.84139
1 89.7287 49.2535 -2.6823
1 88.6452 53.443 -1.23628
1 91.2069 50.5374 -1.26138
1 92.6564 51.8504 -2.54368
1 95.1593 48.944 -2.63639
1 94.098 53.1317 -1.1724
1 96.4691 50.185 -1.24111
1 97.946 51.4579 -2.55495
1 100.571 48.8195 -2.68239
1 99.3351 52.8637 -1.24276
1 101.924 50.0469 -1.26395
1 103.361 51.3856 -2.46528
1 106.003 48.4816 -2.51934
1 104.657 52.7114 -1.00542
1 107.308 49.824 -0.943515
1 108.68 51.136 -2.23105
5 2.7155 67.8875 2.54749
5 8.1465 67.8875 2.64951
5 13.5775 67.8875 -2.68338
5 19.0085 67.8875 -2.68381
5 24.4395 67.8875 -2.67579
5 29.8705 67.8875 2.66759
5 35.3015 67.8875 2.59217
5 40.7325 67.8875 2.5164
5 46.1635 67.8875 2.66036
1 53.3887 62.8739 -0.883157
1 60.3463 61.3488 -2.10414
1 65.3551 58.9611 -2.22888
1 70.0513 57.3573 -2.51784
1 74.7826 56.2296 2.67377
1 79.7816 55.543 -2.72533
1 84.6987 55.035 2.57966
1 90.2998 54.7846 -2.30036
1 95.4215 54.3636 -2.61854
1 100.613 54.2299 -2.5793
1 106.182 53.979 -2.24523
5 0 13.5775 0
5 2.7155 16.293 0
5 1.35775 14.9352 1.35775
5 4.07325 17.6508 1.35775
5 5.431 13.5775 0
5 8.1465 16.293 0
5 6.78875 14.9352 1.35775
5 9.50425 17.6508 1.35775
5 10.862 13.5775 0
5 13.5775 16.293 0
5 12.2197 14.9352 1.35775
5 14.9352 17.6508 1.35775
5 16.293 13.5775 0
5 19.0085 16.293 0
5 17.6507 14.9352 1.35775
5 20.3663 17.6508 1.35775
5 21.724 13.5775 0
5 24.4395 16.293 0
5 23.0817 14.9352 1.35775
5 25.7973 17.6508 1.35775
5 27.155 13.5775 0
5 29.8705 16.293 0
5 28.5128 14.9352 1.35775
5 31.2282 17.6508 1.35775
5 32.586 13.5775 0
5 35.3015 16.293 0
5 33.9438 14.9352 1.35775
5 36.6593 17.6508 1.35775
5 38.017 13.5775 0
5 40.7325 16.293 0
5 39.3747 14.9352 1.35775
5 42.0902 17.6508 1.35775
5 43.448 13.5775 0
5 46.1635 16.293 0
5 44.8058 14.9352 1.35775
5 47.5213 17.6508 1.35775
4 48.879 0 0
4 51.5945 2.7155 0
4 50.2368 1.35775 1.35775
4 52.9522 4.07325 1.35775
4 54.31 0 0
4 57.0255 2.7155 0
4 55.6677 1.35775 1.35775
4 58.3833 4.07325 1.35775
4 59.741 0 0
4 62.4565 2.7155 0
4 61.0988 1.35775 1.35775
4 63.8143 4.07325 1.35775
4 65.172 0 0
4 67.8875 2.7155 0
4 66.5298 1.35775 1.35775
4 69.2452 4.07325 1.35775
4 70.603 0 0
4 73.3185 2.7155 0
4 71.9608 1.35775 1.35775
4 74.6762 4.07325 1.35775
4 76.034 0 0
4 78.7495 2.7155 0
4 77.3918 1.35775 1.35775
4 80.1073 4.07325 1.35775
4 81.465 0 0
4 84.1805 2.7155 0
4 82.8227 1.35775 1.35775
4 85.5383 4.07325 1.35775
4 86.896 0 0
4 89.6115 2.7155 0
4 88.2537 1.35775 1.35775
4 90.9693 4.07325 1.35775
4 92.327 0 0
4 95.0425 2.7155 0
4 93.6847 1.35775 1.35775
4 96.4002 4.07325 1.35775
4 97.758 0 0
4 100.474 2.7155 0
4 99.1158 1.35775 1.35775
4 101.831 4.07325 1.35775
4 103.189 0 0
4 105.904 2.7155 0
4 104.547 1.35775 1.35775
4 107.262 4.07325 1.35775
4 108.62 0 0
5 0 19.0085 0
5 2.7155 21.724 -0.030378
5 1.35775 20.3663 1.35775
5 4.07325 23.0818 1.31966
5 5.431 19.0085 0
5 8.1465 21.724 -0.00207584
5 6.78875 20.3663 1.35775
5 9.50425 23.0818 1.35242
5 10.862 19.0085 0
5 13.5775 21.724 -0.00491819
5 12.2197 20.3663 1.35775
5 14.9352 23.0818 1.31869
5 16.293 19.0085 0
5 19.0085 21.724 0.00290528
5 17.6507 20.3663 1.35775
5 20.3663 23.0818 1.35757
5 21.724 19.0085 0
5 24.4395 21.724 0.003671
5 23.0817 20.3663 1.35775
5 25.7973 23.0818 1.35541
5 27.155 19.0085 0
5 29.8705 21.724 0.0272404
5 28.5128 20.3663 1.35775
5 31.2282 23.0818 1.35189
5 32.586 19.0085 0
5 35.3015 21.724 0.00908262
5 33.9438 20.3663 1.35775
5 36.6593 23.0818 1.3219
5 38.017 19.0085 0
5 40.7325 21.724 0.0378749
5 39.3747 20.3663 1.35775
5 42.0902 23.0818 1.41817
5 43.448 19.0085 0
5 46.1635 21.724 0.0287579
5 44.8058 20.3663 1.35775
5 47.5213 23.0818 1.47408
4 48.879 5.431 0
1 51.5016 8.10587 -0.0202034
4 50.2368 6.78875 1.35775
1 53.048 9.49731 1.2143
4 54.31 5.431 0
1 56.9633 8.17588 -0.00413893
4 55.6677 6.78875 1.35775
1 58.3469 9.56928 1.16673
4 59.741 5.431 0
1 62.3243 8.10457 0.0436633
4 61.0988 6.78875 1.35775
1 63.552 9.75397 1.31889
4 65.172 5.431 0
1 67.7811 8.26763 -0.0985899
4 66.5298 6.78875 1.35775
1 69.1016 9.81482 1.314
4 70.603 5.431 0
1 73.1931 8.20993 -0.00230237
4 71.9608 6.78875 1.35775
1 74.3968 9.72897 1.49088
4 76.034 5.431 0
1 78.7039 8.24685 0.0179125
4 77.3918 6.78875 1.35775
1 79.8134 9.78274 1.48055
4 81.465 5.431 0
1 83.9922 8.22317 -0.0674481
4 82.8227 6.78875 1.35775
1 85.2491 9.61861 1.40192
4 86.896 5.431 0
1 89.4629 8.15596 -0.035299
4 88.2537 6.78875 1.35775
1 90.716 9.61503 1.37361
4 92.327 5.431 0
1 94.9338 8.22927 -0.031712
4 93.6847 6.78875 1.35775
1 96.2129 9.62553 1.31421
4 97.758 5.431 0
1 100.373 8.17751 -0.0109153
4 99.1158 6.78875 1.35775
1 101.608 9.53358 1.42152
4 103.189 5.431 0
1 105.782 8.18328 -0.0306497
4 104.547 6.78875 1.35775
1 106.968 9.66871 1.24866
4 108.62 5.431 0
5 0 24.4395 -0.0123317
5 2.7155 27.155 -0.0900773
5 1.35775 25.7973 1.31363
5 4.07325 28.5128 1.31552
5 5.431 24.4395 -0.028277
5 8.1465 27.155 0.0736872
5 6.78875 25.7973 1.35572
5 9.50425 28.5128 1.42897
5 10.862 24.4395 -0.00815739
5 13.5775 27.155 -0.00889917
5 12.2197 25.7973 1.39536
5 14.9352 28.5128 1.38529
5 16.293 24.4395 0.0549538
5 19.0085 27.155 0.0554889
5 17.6507 25.7973 1.37918
5 20.3663 28.5128 1.42657
5 21.724 24.4395 0.0208951
5 24.4395 27.155 0.114043
5 23.0817 25.7973 1.44745
5 25.7973 28.5128 1.4422
5 27.155 24.4395 0.0476033
5 29.8705 27.155 0.0464293
5 28.5128 25.7973 1.43601
5 31.2282 28.5128 1.44514
5 32.586 24.4395 0.00606015
5 35.3015 27.155 -0.0125542
5 33.9438 25.7973 1.32988
5 36.6593 28.5128 1.30038
5 38.017 24.4395 -0.0451612
5 40.7325 27.155 -0.0331181
5 39.3747 25.7973 1.29728
5 42.0902 28.5128 1.31001
5 43.448 24.4395 0.0909414
5 46.1635 27.155 0.049535
5 44.8058 25.7973 1.44404
5 47.5213 28.5128 1.35682
1 48.9787 24.0886 -0.329115
1 51.1298 25.2559 -0.155038
1 51.2909 25.3299 2.30778
1 52.742 23.668 -1.663
1 54.0976 10.9334 -0.557607
1 55.7357 15.6685 0.548693
1 56.1125 11.9267 0.292342
1 57.3767 16.5573 1.96237
1 59.4621 11.2198 -0.0931218
1 61.8166 14.3279 0.0661977
1 60.4951 12.8505 1.38397
1 63.0339 15.7962 1.51622
1 64.8101 11.1539 -0.104353
1 67.2477 14.2543 -0.151432
1 66.0321 12.7385 1.32978
1 68.3969 15.6319 1.34852
1 70.2655 11.3293 -0.00175058
1 72.566 14.1777 0.0535215
1 71.4061 12.7336 1.49465
1 73.7318 15.65 1.52947
1 75.5621 11.2574 0.0910421
1 78.0881 14.1291 0.0497015
1 76.7597 12.8222 1.47951
1 79.3441 15.5359 1.46854
1 81.0209 11.1779 0.0698632
1 83.551 13.8421 0.141218
1 82.226 12.5232 1.54985
1 84.7608 15.2475 1.58138
1 86.5361 10.9819 0.013094
1 89.0736 13.8245 -0.0268168
1 87.8119 12.442 1.37727
1 90.305 15.2465 1.38575
1 92.1019 10.9673 -0.013666
1 94.5714 13.7658 0.0194648
1 93.3966 12.4294 1.4313
1 95.7649 15.1751 1.42978
1 97.4207 11.0581 -0.125836
1 100.018 13.8283 -0.0622477
1 98.6844 12.4484 1.39465
1 101.26 15.2478 1.28598
1 102.766 10.9738 -0.00323163
1 105.411 13.7161 -0.24006
1 104.06 12.3984 1.29293
1 106.743 15.183 1.15435
1 108.184 11.2309 -0.0323039
5 0 29.8705 -0.0173586
5 2.7155 32.586 -0.0570092
5 1.35775 31.2283 1.35192
5 4.07325 33.9438 1.36604
5 5.431 29.8705 -0.0322161
5 8.1465 32.586 -0.0570884
5 6.78875 31.2283 1.33234
5 9.50425 33.9438 1.3112
5 10.862 29.8705 0.0309824
5 13.5775 32.586 0.0204994
5 12.2197 31.2283 1.40551
5 14.9352 33.9438 1.37085
5 16.293 29.8705 0.0443708
5 19.0085 32.586 0.0781517
5 17.6507 31.2283 1.44641
5 20.3663 33.9438 1.49943
5 21.724 29.8705 0.0729903
5 24.4395 32.586 0.0643199
5 23.0817 31.2283 1.44338
5 25.7973 33.9438 1.43578
5 27.155 29.8705 0.113391
5 29.8705 32.586 0.0910919
5 28.5128 31.2283 1.44486
5 31.2282 33.9438 1.41612
5 32.586 29.8705 0.0942093
5 35.3015 32.586 0.134152
5 33.9438 31.2283 1.47964
5 36.6593 33.9438 1.48442
5 38.017 29.8705 -0.0915324
5 40.7325 32.586 -0.0843803
5 39.3747 31.2283 1.28708
5 42.0902 33.9438 1.31284
5 43.448 29.8705 -0.0153745
5 46.1635 32.586 -0.00254269
5 44.8058 31.2283 1.36298
5 47.5213 33.9438 1.37264
1 48.9981 29.7803 -0.211338
1 51.2528 31.1455 -0.615108
1 50.4324 30.6905 1.63126
1 52.6551 32.0007 1.46618
1 52.6733 27.0654 0.827375
1 55.77 21.0509 0.0955822
1 54.578 19.6888 1.81404
1 56.9599 22.5648 1.65323
1 58.626 17.679 0.224012
1 61.2004 20.6232 0.151721
1 59.8729 19.2174 1.55406
1 62.4886 22.1006 1.54247
1 64.2903 17.2558 0.0293134
1 66.6229 20.2963 -0.102844
1 65.4692 18.9352 1.3068
1 67.9355 21.7328 1.38956
1 69.5324 17.143 -0.121889
1 72.0645 20.1181 -0.0319866
1 70.7573 18.6549 1.3076
1 73.3231 21.4338 1.53827
1 75.0078 17.1231 0.138136
1 77.632 19.7783 0.0777076
1 76.3232 18.4287 1.48852
1 78.9305 21.1626 1.44113
1 80.6053 16.8535 0.0920437
1 83.0983 19.5804 -0.00284089
1 81.827 18.2721 1.56165
1 84.474 20.8143 1.38605
1 86.0493 16.5243 0.0724613
1 88.7205 19.3575 -0.000143662
1 87.436 17.9683 1.36023
1 89.8983 20.7454 1.41775
1 91.513 16.6406 0.00506551
1 94.0524 19.2055 0.0572818
1 92.703 17.8881 1.47362
1 95.5239 20.5808 1.40758
1 97.0001 16.4993 0.00793148
1 99.5704 19.2754 -0.16274
1 98.3269 17.8839 1.37143
1 100.978 20.5426 1.287
1 102.549 16.5654 -0.11686
1 105.114 19.1724 -0.0685115
1 103.84 17.8704 1.24846
1 106.355 20.5101 1.40151
1 108.006 16.6942 -0.212464
5 0 35.3015 0.0148145
5 2.7155 38.017 0.104191
5 1.35775 36.6593 1.42655
5 4.07325 39.3748 1.46704
5 5.431 35.3015 0.0198245
5 8.1465 38.017 0.0958405
5 6.78875 36.6593 1.4123
5 9.50425 39.3748 1.37623
5 10.862 35.3015 -0.0333202
5 13.5775 38.017 -0.0406121
5 12.2197 36.6593 1.33511