1661
 Atoms. Timestep: 0
5 0 2.7155 -2.7155
5 2.7155 0 -2.7155
5 1.35775 4.07325 -1.35775
5 4.07325 1.35775 -1.35775
5 5.431 2.7155 -2.7155
5 8.1465 0 -2.7155
5 6.78875 4.07325 -1.35775
5 9.50425 1.35775 -1.35775
5 10.862 2.7155 -2.7155
5 13.5775 0 -2.7155
5 12.2197 4.07325 -1.35775
5 14.9352 1.35775 -1.35775
5 16.293 2.7155 -2.7155
5 19.0085 0 -2.7155
5 17.6507 4.07325 -1.35775
5 20.3663 1.35775 -1.35775
5 21.724 2.7155 -2.7155
5 24.4395 0 -2.7155
5 23.0817 4.07325 -1.35775
5 25.7973 1.35775 -1.35775
5 27.155 2.7155 -2.7155
5 29.8705 0 -2.7155
5 28.5128 4.07325 -1.35775
5 31.2282 1.35775 -1.35775
5 32.586 2.7155 -2.7155
5 35.3015 0 -2.7155
5 33.9438 4.07325 -1.35775
5 36.6593 1.35775 -1.35775
5 38.017 2.7155 -2.7155
5 40.7325 0 -2.7155
5 39.3747 4.07325 -1.35775
5 42.0902 1.35775 -1.35775
5 43.448 2.7155 -2.7155
5 46.1635 0 -2.7155
5 44.8058 4.07325 -1.35775
5 47.5213 1.35775 -1.35775
4 48.879 2.7155 -2.7155
4 51.5945 0 -2.7155
4 50.2368 4.07325 -1.35775
4 52.9522 1.35775 -1.35775
4 54.31 2.7155 -2.7155
4 57.0255 0 -2.7155
4 55.6677 4.07325 -1.35775
4 58.3833 1.35775 -1.35775
4 59.741 2.7155 -2.7155
4 62.4565 0 -2.7155
4 61.0988 4.07325 -1.35775
4 63.8143 1.35775 -1.35775
4 65.172 2.7155 -2.7155
4 67.8875 0 -2.7155
4 66.5298 4.07325 -1.35775
4 69.2452 1.35775 -1.35775
4 70.603 2.7155 -2.7155
4 73.3185 0 -2.7155
4 71.9608 4.07325 -1.35775
4 74.6762 1.35775 -1.35775
4 76.034 2.7155 -2.7155
4 78.7495 0 -2.7155
4 77.3918 4.07325 -1.35775
4 80.1073 1.35775 -1.35775
4 81.465 2.7155 -2.7155
4 84.1805 0 -2.7155
4 82.8227 4.07325 -1.35775
4 85.5383 1.35775 -1.35775
4 86.896 2.7155 -2.7155
4 89.6115 0 -2.7155
4 88.2537 4.07325 -1.35775
4 90.9693 1.35775 -1.35775
4 92.327 2.7155 -2.7155
4 95.0425 0 -2.7155
4 93.6847 4.07325 -1.35775
4 96.4002 1.35775 -1.35775
4 97.758 2.7155 -2.7155
4 100.474 0 -2.7155
4 99.1158 4.07325 -1.35775
4 101.831 1.35775 -1.35775
4 103.189 2.7155 -2.7155
4 105.904 0 -2.7155
4 104.547 4.07325 -1.35775
4 107.262 1.35775 -1.35775
4 108.62 2.7155 -2.7155
5 0 8.1465 -2.71543
5 2.7155 5.431 -2.7155
5 1.35775 9.50425 -1.43774
5 4.07325 6.78875 -1.35775
5 5.431 8.1465 2.70864
5 8.1465 5.431 -2.7155
5 6.78875 9.50425 -1.38696
5 9.50425 6.78875 -1.35775
5 10.862 8.1465 2.70796
5 13.5775 5.431 -2.7155
5 12.2197 9.50425 -1.34508
5 14.9352 6.78875 -1.35775
5 16.293 8.1465 2.71168
5 19.0085 5.431 -2.7155
5 17.6507 9.50425 -1.3281
5 20.3663 6.78875 -1.35775
5 21.724 8.1465 -2.69657
5 24.4395 5.431 -2.7155
5 23.0817 9.50425 -1.30956
5 25.7973 6.78875 -1.35775
5 27.155 8.1465 2.69053
5 29.8705 5.431 -2.7155
5 28.5128 9.50425 -1.30363
5 31.2282 6.78875 -1.35775
5 32.586 8.1465 -2.70278
5 35.3015 5.431 -2.7155
5 33.9438 9.50425 -1.39425
5 36.6593 6.78875 -1.35775
5 38.017 8.1465 2.70511
5 40.7325 5.431 -2.7155
5 39.3747 9.50425 -1.34844
5 42.0902 6.78875 -1.35775
5 43.448 8.1465 2.71351
5 46.1635 5.431 -2.7155
5 44.8058 9.50425 -1.28321
5 47.5213 6.78875 -1.35775
1 48.9469 8.176 -2.55498
4 51.5945 5.431 -2.7155
1 50.297 9.60501 -1.3148
4 52.9522 6.78875 -1.35775
1 54.2849 8.16348 2.7113
4 57.0255 5.431 -2.7155
1 55.6758 9.51388 -1.38428
4 58.3833 6.78875 -1.35775
1 59.7104 8.10333 2.67328
4 62.4565 5.431 -2.7155
1 61.0667 9.41111 -1.4205
4 63.8143 6.78875 -1.35775
1 65.1393 8.12592 -2.60037
4 67.8875 5.431 -2.7155
1 66.4964 9.46174 -1.29046
4 69.2452 6.78875 -1.35775
1 70.5818 8.11068 -2.70337
4 73.3185 5.431 -2.7155
1 72.0463 9.40318 -1.37033
4 74.6762 6.78875 -1.35775
1 76.1185 8.11381 -2.66116
4 78.7495 5.431 -2.7155
1 77.5117 9.52206 -1.30974
4 80.1073 6.78875 -1.35775
1 81.4503 8.10984 2.6584
4 84.1805 5.431 -2.7155
1 82.7747 9.51453 -1.46638
4 85.5383 6.78875 -1.35775
1 86.8601 8.21578 2.65635
4 89.6115 5.431 -2.7155
1 88.2505 9.55196 -1.36597
4 90.9693 6.78875 -1.35775
1 92.3368 8.17314 2.70183
4 95.0425 5.431 -2.7155
1 93.679 9.51588 -1.32829
4 96.4002 6.78875 -1.35775
1 97.8356 8.18783 -2.67449
4 100.474 5.431 -2.7155
1 99.2353 9.52055 -1.26552
4 101.831 6.78875 -1.35775
1 103.195 8.11074 2.66427
4 105.904 5.431 -2.7155
1 104.487 9.42801 -1.39806
4 107.262 6.78875 -1.35775
1 108.543 8.25392 -2.70515
5 0 13.5775 2.63198
5 2.7155 10.862 -2.66834
5 1.35775 14.9352 -1.41954
5 4.07325 12.2197 -1.41133
5 5.431 13.5775 2.69468
5 8.1465 10.862 2.65187
5 6.78875 14.9352 -1.37557
5 9.50425 12.2197 -1.35301
5 10.862 13.5775 -2.70665
5 13.5775 10.862 2.70071
5 12.2197 14.9352 -1.28115
5 14.9352 12.2197 -1.35625
5 16.293 13.5775 -2.66331
5 19.0085 10.862 -2.66278
5 17.6507 14.9352 -1.27732
5 20.3663 12.2197 -1.2992
5 21.724 13.5775 -2.66359
5 24.4395 10.862 -2.70287
5 23.0817 14.9352 -1.19674
5 25.7973 12.2197 -1.26974
5 27.155 13.5775 -2.59502
5 29.8705 10.862 -2.65836
5 28.5128 14.9352 -1.25159
5 31.2282 12.2197 -1.34759
5 32.586 13.5775 -2.65618
5 35.3015 10.862 2.69208
5 33.9438 14.9352 -1.36378
5 36.6593 12.2197 -1.41571
5 38.017 13.5775 2.63976
5 40.7325 10.862 2.70688
5 39.3747 14.9352 -1.47285
5 42.0902 12.2197 -1.3132
5 43.448 13.5775 -2.65676
5 46.1635 10.862 -2.63974
5 44.8058 14.9352 -1.32647
5 47.5213 12.2197 -1.28961
1 48.7855 13.5625 -2.64194
1 51.664 10.9656 -2.69271
1 50.1842 14.9345 -1.30965
1 52.9559 12.2806 -1.23616
1 54.3039 13.6009 -2.66869
1 57.0028 10.8738 2.68244
1 55.6418 15.0134 -1.32923
1 58.4487 12.2533 -1.50058
1 59.7336 13.5742 2.62769
1 62.3783 10.9322 2.68692
1 61.1085 14.8754 -1.37612
1 63.8572 12.1893 -1.33801
1 65.1483 13.5704 2.69803
1 67.7813 10.7279 2.63646
1 66.6544 14.9207 -1.40466
1 69.2043 11.9785 -1.35301
1 70.4945 13.3832 2.69335
1 73.4037 10.8204 2.70738
1 71.9966 14.8476 -1.33657
1 74.6978 12.2186 -1.3179
1 76.147 13.5823 -2.61091
1 78.7389 10.9501 2.70519
1 77.3659 15.0306 -1.27997
1 80.0863 12.3122 -1.44585
1 81.5751 13.6505 -2.67849
1 84.1333 10.886 2.66065
1 82.8328 14.9463 -1.24539
1 85.4565 12.2181 -1.43197
1 86.8315 13.5612 2.6245
1 89.5702 10.8855 2.64629
1 88.2086 14.873 -1.37524
1 90.8707 12.2707 -1.37825
1 92.2882 13.6551 -2.60269
1 95.0352 10.9401 2.62937
1 93.5468 15.0967 -1.25435
1 96.3257 12.3399 -1.27979
1 97.6419 13.6034 -2.67312
1 100.353 10.8244 -2.7069
1 99.1454 15.0391 -1.46305
1 101.741 12.1307 -1.3199
1 102.958 13.4729 2.60012
1 105.746 10.9472 2.62454
1 104.344 14.963 -1.61344
1 107.06 12.3593 -1.51113
1 108.281 13.7383 2.46201
5 0 19.0085 -2.68297
5 2.7155 16.293 2.66817
5 1.35775 20.3663 -1.35284
5 4.07325 17.6507 -1.38681
5 5.431 19.0085 -2.69603
5 8.1465 16.293 -2.67038
5 6.78875 20.3663 -1.36454
5 9.50425 17.6507 -1.3325
5 10.862 19.0085 -2.69503
5 13.5775 16.293 -2.67287
5 12.2197 20.3663 -1.38315
5 14.9352 17.6507 -1.25766
5 16.293 19.0085 -2.60809
5 19.0085 16.293 -2.61029
5 17.6507 20.3663 -1.26276
5 20.3663 17.6507 -1.26122
5 21.724 19.0085 -2.56915
5 24.4395 16.293 -2.60442
5 23.0817 20.3663 -1.29124
5 25.7973 17.6507 -1.27091
5 27.155 19.0085 -2.61904
5 29.8705 16.293 -2.60565
5 28.5128 20.3663 -1.34844
5 31.2282 17.6507 -1.27871
5 32.586 19.0085 -2.64748
5 35.3015 16.293 -2.70053
5 33.9438 20.3663 -1.25023
5 36.6593 17.6507 -1.34704
5 38.017 19.0085 2.67259
5 40.7325 16.293 2.63251
5 39.3747 20.3663 -1.36259
5 42.0902 17.6507 -1.39646
5 43.448 19.0085 2.68707
5 46.1635 16.293 2.71548
5 44.8058 20.3663 -1.35067
5 47.5213 17.6507 -1.28631
1 48.7894 18.9257 2.7068
1 51.5302 16.3388 -2.63087
1 50.2305 20.2614 -1.32853
1 52.8334 17.6722 -1.19017
1 54.1954 19.0759 -2.56976
1 56.992 16.3382 -2.64414
1 55.6428 20.435 -1.22764
1 58.3245 17.7063 -1.25398
1 59.6888 18.9465 2.70825
1 62.4299 16.1858 2.6806
1 61.106 20.2014 -1.28976
1 63.8157 17.485 -1.31314
1 65.1791 18.8236 -2.60132
1 67.9008 16.3052 2.65122
1 66.5509 20.248 -1.27873
1 69.2785 17.5109 -1.39822
1 70.5857 18.8977 -2.67407
1 73.3274 16.2546 -2.71019
1 71.9249 20.3031 -1.27956
1 74.6345 17.6146 -1.28009
1 75.9679 18.9623 -2.6978
1 78.6936 16.3439 -2.67558
1 77.329 20.2455 -1.24176
1 80.0747 17.728 -1.31303
1 81.4313 18.9917 2.70743
1 84.137 16.3026 -2.61349
1 82.7396 20.5217 -1.37284
1 85.5056 17.786 -1.3537
1 86.9145 19.1185 2.66285
1 89.6003 16.2932 -2.69756
1 88.3026 20.3366 -1.44001
1 90.8344 17.7028 -1.36442
1 92.1529 19.1387 -2.64057
1 94.9343 16.4198 2.69009
1 93.5675 20.4146 -1.32603
1 96.2835 17.705 -1.30017
1 97.5976 19.0857 -2.70559
1 100.467 16.3812 2.5676
1 99.0258 20.4221 -1.43854
1 101.732 17.7166 -1.54422
1 103.133 19.1731 2.7074
1 105.719 16.4263 2.55708
1 104.438 20.5279 -1.44251
1 107.126 17.6875 -1.50411
1 108.432 19.2762 -2.66327
5 0 24.4395 -2.60516
5 2.7155 21.724 -2.61144
5 1.35775 25.7973 -1.32667
5 4.07325 23.0817 -1.27164
5 5.431 24.4395 -2.60767
5 8.1465 21.724 2.70293
5 6.78875 25.7973 -1.25386
5 9.50425 23.0817 -1.3714
5 10.862 24.4395 2.66431
5 13.5775 21.724 2.68096
5 12.2197 25.7973 -1.34487
5 14.9352 23.0817 -1.40261
5 16.293 24.4395 -2.70308
5 19.0085 21.724 -2.61801
5 17.6507 25.7973 -1.35988
5 20.3663 23.0817 -1.29193
5 21.724 24.4395 -2.70039
5 24.4395 21.724 -2.65922
5 23.0817 25.7973 -1.33539
5 25.7973 23.0817 -1.31983
5 27.155 24.4395 -2.6812
5 29.8705 21.724 -2.66451
5 28.5128 25.7973 -1.28017
5 31.2282 23.0817 -1.31945
5 32.586 24.4395 -2.67376
5 35.3015 21.724 -2.61113
5 33.9438 25.7973 -1.32215
5 36.6593 23.0817 -1.33108
5 38.017 24.4395 -2.71374
5 40.7325 21.724 2.61908
5 39.3747 25.7973 -1.37859
5 42.0902 23.0817 -1.3818
5 43.448 24.4395 2.67422
5 46.1635 21.724 -2.68487
5 44.8058 25.7973 -1.30629
5 47.5213 23.0817 -1.37882
1 48.9295 24.3938 -2.69645
1 51.632 21.7015 -2.55926
1 50.2045 25.8154 -1.30129
1 52.9132 23.1278 -1.26244
1 54.3465 24.4688 -2.57261
1 56.9678 21.6255 -2.65126
1 55.7147 25.8157 -1.32604
1 58.3505 22.9331 -1.29792
1 59.8506 24.2712 -2.69897
1 62.4921 21.4826 2.65439
1 61.1217 25.6502 -1.365
1 63.842 22.8231 -1.46018
1 65.1641 24.358 -2.67331
1 67.839 21.719 -2.63051
1 66.5187 25.6745 -1.33349
1 69.2564 23.009 -1.32317
1 70.6749 24.3001 -2.66895
1 73.2223 21.6225 2.68033
1 71.994 25.7153 -1.35069
1 74.6648 23.0094 -1.38343
1 76.0172 24.3413 2.69711
1 78.7395 21.6541 -2.64895
1 77.3839 25.6654 -1.37952
1 80.0999 23.0054 -1.3108
1 81.3954 24.4123 -2.70773
1 84.1731 21.8677 -2.6675
1 82.6922 25.6858 -1.33941
1 85.4734 23.1236 -1.27463
1 86.8519 24.4612 -2.68364
1 89.6253 21.8636 -2.60998
1 88.1909 25.8336 -1.36315
1 90.9465 23.2219 -1.22975
1 92.2786 24.535 -2.62123
1 94.9928 21.8186 -2.61718
1 93.6342 25.9083 -1.26409
1 96.3839 23.2518 -1.24889
1 97.7456 24.6417 -2.64335
1 100.387 21.7466 2.60956
1 98.946 25.9726 -1.36098
1 101.679 23.16 -1.49272
1 102.98 24.5349 2.60043
1 105.698 21.8452 2.5522
1 104.467 25.8748 -1.49673
1 107.018 23.2031 -1.47091
1 108.356 24.5746 2.64979
5 0 29.8705 -2.61255
5 2.7155 27.155 -2.65371
5 1.35775 31.2282 -1.27513
5 4.07325 28.5128 -1.30261
5 5.431 29.8705 -2.64002
5 8.1465 27.155 -2.59984
5 6.78875 31.2282 -1.3368
5 9.50425 28.5128 -1.27458
5 10.862 29.8705 -2.67215
5 13.5775 27.155 -2.69727
5 12.2197 31.2282 -1.34555
5 14.9352 28.5128 -1.32603
5 16.293 29.8705 -2.69421
5 19.0085 27.155 -2.66204
5 17.6507 31.2282 -1.3507
5 20.3663 28.5128 -1.34382
5 21.724 29.8705 -2.62154
5 24.4395 27.155 -2.65716
5 23.0817 31.2282 -1.2423
5 25.7973 28.5128 -1.32218
5 27.155 29.8705 -2.65781
5 29.8705 27.155 -2.61485
5 28.5128 31.2282 -1.29348
5 31.2282 28.5128 -1.28748
5 32.586 29.8705 2.67894
5 35.3015 27.155 2.69709
5 33.9438 31.2282 -1.35029
5 36.6593 28.5128 -1.40766
5 38.017 29.8705 -2.6921
5 40.7325 27.155 -2.68114
5 39.3747 31.2282 -1.34217
5 42.0902 28.5128 -1.32669
5 43.448 29.8705 -2.70833
5 46.1635 27.155 -2.69833
5 44.8058 31.2282 -1.35261
5 47.5213 28.5128 -1.25627
1 48.9602 29.8213 -2.66049
1 51.6258 27.1842 -2.50808
1 50.2508 31.2036 -1.19573
1 52.97 28.4524 -1.17772
1 54.332 29.7948 -2.62602
1 57.0159 27.1546 -2.67856
1 55.6629 31.121 -1.29182
1 58.3586 28.4452 -1.25525
1 59.7736 29.7438 -2.59938
1 62.4918 27.094 -2.69101
1 61.113 31.2178 -1.30372
1 63.8019 28.5363 -1.35297
1 65.1526 29.7776 2.6485
1 67.9444 27.0418 2.71075
1 66.5478 31.2193 -1.38355
1 69.1956 28.4629 -1.3485
1 70.566 29.9252 -2.64723
1 73.244 27.0572 2.67437
1 72.0468 31.2146 -1.32957
1 74.5913 28.5022 -1.38054
1 76.0293 29.891 -2.67841
1 78.7855 27.0439 2.68913
1 77.4363 31.2317 -1.37505
1 80.1368 28.3595 -1.40029
1 81.5531 29.6849 -2.69482
1 84.1242 27.0722 -2.7145
1 82.8467 31.2136 -1.30956
1 85.3965 28.5181 -1.32836
1 86.8402 29.9693 -2.62499
1 89.5954 27.1579 -2.60971
1 88.1951 31.2769 -1.24355
1 91.0052 28.5538 -1.34586
1 92.3118 30.0321 2.65227
1 94.9456 27.3052 -2.60732
1 93.6148 31.4272 -1.42839
1 96.3422 28.6681 -1.44221
1 97.6487 29.9437 2.63942
1 100.309 27.3295 2.70288
1 99.0246 31.3684 -1.44376
1 101.778 28.6349 -1.48004
1 103.058 29.8909 2.64
1 105.829 27.2246 2.61627
1 104.409 31.2303 -1.36268
1 107.269 28.5942 -1.42119
1 108.526 30.0758 -2.65727
5 0 35.3015 -2.63206
5 2.7155 32.586 -2.62245
5 1.35775 36.6593 -1.23887
5 4.07325 33.9438 -1.37622
5 5.431 35.3015 -2.70393
5 8.1465 32.586 -2.64732
5 6.78875 36.6593 -1.31106
5 9.50425 33.9438 -1.31103
5 10.862 35.3015 -2.71065
5 13.5775 32.586 -2.69663
5 12.2197 36.6593 -1.33369
5 14.9352 33.9438 -1.42543
5 16.293 35.3015 2.65473
5 19.0085 32.586 -2.70883
5 17.6507 36.6593 -1.40294
5 20.3663 33.9438 -1.3188
5 21.724 35.3015 -2.67508
5 24.4395 32.586 -2.635
5 23.0817 36.6593 -1.29482
5 25.7973 33.9438 -1.25273
5 27.155 35.3015 -2.64535
5 29.8705 32.586 -2.66406
5 28.5128 36.6593 -1.30055
5 31.2282 33.9438 -1.34962
5 32.586 35.3015 -2.65732
5 35.3015 32.586 2.68513
5 33.9438 36.6593 -1.29404
5 36.6593 33.9438 -1.30892
5 38.017 35.3015 -2.65154
5 40.7325 32.586 2.71404
5 39.3747 36.6593 -1.32387
5 42.0902 33.9438 -1.3825
5 43.448 35.3015 2.69512
5 46.1635 32.586 -2.68039
5 44.8058 36.6593 -1.31034
5 47.5213 33.9438 -1.29656
1 48.8686 35.3248 -2.66193
1 51.5324 32.5122 -2.68128
1 50.2458 36.6798 -1.36549
1 52.9469 33.9017 -1.38726
1 54.2662 35.2784 2.64262
1 56.9713 32.5518 -2.69137
1 55.6244 36.5948 -1.29444
1 58.3464 33.9497 -1.28187
1 59.822 35.2501 -2.60113
1 62.5092 32.5084 -2.71515
1 61.0945 36.7631 -1.26668
1 63.8441 33.8221 -1.4101
1 65.1939 35.252 2.68234
1 67.9699 32.5589 2.64099
1 66.5248 36.615 -1.3684
1 69.4606 33.9157 -1.41147
1 70.7833 35.3162 2.67909
1 73.4366 32.6101 2.63608
1 72.0676 36.6715 -1.33368
1 74.7636 33.9889 -1.41645
1 76.0959 35.3828 2.64001
1 78.7736 32.601 2.67602
1 77.5206 36.6495 -1.42897
1 80.146 34.0575 -1.36614
1 81.4211 35.4544 2.68363
1 84.137 32.5992 -2.69293
1 82.7704 36.6861 -1.44366
1 85.4876 34.001 -1.40426
1 86.928 35.3282 -2.69883
1 89.6258 32.6118 -2.6289
1 88.2647 36.7158 -1.27399
1 91.0665 34.0648 -1.29949
1 92.2917 35.5197 -2.70479
1 95.0325 32.7693 2.65847
1 93.6036 36.8188 -1.30189
1 96.3926 34.0717 -1.37234
1 97.7101 35.5063 2.66891
1 100.401 32.7467 2.66163
1 99.1815 36.7463 -1.40635
1 101.828 34.0921 -1.47379
1 103.255 35.397 2.63234
1 105.796 32.5869 2.65033
1 104.549 36.7622 -1.35487
1 107.29 33.895 -1.42826
1 108.58 35.3798 -2.70962
5 0 40.7325 -2.7087
5 2.7155 38.017 -2.66017
5 1.35775 42.0902 -1.34666
5 4.07325 39.3747 -1.33436
5 5.431 40.7325 -2.70139
5 8.1465 38.017 2.67524
5 6.78875 42.0902 -1.38754
5 9.50425 39.3747 -1.33276
5 10.862 40.7325 2.70549
5 13.5775 38.017 2.70846
5 12.2197 42.0902 -1.36249
5 14.9352 39.3747 -1.42273
5 16.293 40.7325 2.63609
5 19.0085 38.017 2.69188
5 17.6507 42.0902 -1.39416
5 20.3663 39.3747 -1.36012
5 21.724 40.7325 -2.64803
5 24.4395 38.017 -2.61737
5 23.0817 42.0902 -1.29583
5 25.7973 39.3747 -1.29132
5 27.155 40.7325 -2.6977
5 29.8705 38.017 -2.6352
5 28.5128 42.0902 -1.33573
5 31.2282 39.3747 -1.2468
5 32.586 40.7325 2.70267
5 35.3015 38.017 -2.67157
5 33.9438 42.0902 -1.43523
5 36.6593 39.3747 -1.34332
5 38.017 40.7325 -2.70054
5 40.7325 38.017 -2.63009
5 39.3747 42.0902 -1.3665
5 42.0902 39.3747 -1.31323
5 43.448 40.7325 -2.69775
5 46.1635 38.017 -2.69548
5 44.8058 42.0902 -1.38377
5 47.5213 39.3747 -1.43507
1 48.9259 40.7461 2.61865
1 51.6237 38.057 2.63474
1 50.2091 42.1245 -1.40989
1 53.0189 39.3858 -1.47901
1 54.4479 40.7278 -2.71406
1 57.0139 38.0536 -2.67905
1 55.7919 42.1596 -1.38176
1 58.4214 39.4081 -1.35813
1 59.7979 40.817 2.69566
1 62.472 38.0968 -2.61836
1 61.1614 42.1512 -1.32674
1 63.9183 39.3469 -1.33434
1 65.2063 40.8072 2.71014
1 67.7922 37.9775 2.60254
1 66.5748 42.0846 -1.41935
1 69.2046 39.3393 -1.5032
1 70.697 40.7027 2.62088
1 73.3875 38.0599 2.66058
1 72.0429 42.0652 -1.45065
1 74.7803 39.4602 -1.50381
1 76.1104 40.7977 2.5742
1 78.8956 38.0919 2.64934
1 77.4274 42.2188 -1.40821
1 80.2042 39.4133 -1.4155
1 81.5409 40.7348 2.6389
1 84.2524 37.9966 2.62914
1 82.8873 42.1621 -1.41884
1 85.5604 39.4307 -1.42944
1 86.8883 40.8659 -2.70651
1 89.5976 38.1196 -2.61401
1 88.1761 42.1956 -1.33589
1 90.9491 39.4671 -1.32805
1 92.236 40.9301 2.69078
1 95.0281 38.1894 2.67742
1 93.5529 42.2272 -1.38346
1 96.4845 39.4925 -1.39787
1 97.7417 40.8615 2.66164
1 100.5 38.1061 -2.71167
1 99.0277 42.1828 -1.47066
1 101.768 39.5188 -1.33358
1 103.135 40.7509 2.67629
1 105.935 38.1254 2.66751
1 104.416 42.113 -1.4084
1 107.218 39.4703 -1.4139
1 108.476 40.8833 2.63404
5 0 46.1635 2.69626
5 2.7155 43.448 2.70377
5 1.35775 47.5213 -1.43462
5 4.07325 44.8058 -1.3614
5 5.431 46.1635 2.66903
5 8.1465 43.448 2.69325
5 6.78875 47.5213 -1.42813
5 9.50425 44.8058 -1.39917
5 10.862 46.1635 -2.69138
5 13.5775 43.448 2.6786
5 12.2197 47.5213 -1.32651
5 14.9352 44.8058 -1.41305
5 16.293 46.1635 2.68531
5 19.0085 43.448 2.6318
5 17.6507 47.5213 -1.37599
5 20.3663 44.8058 -1.34193
5 21.724 46.1635 -2.70744
5 24.4395 43.448 -2.69157
5 23.0817 47.5213 -1.42461
5 25.7973 44.8058 -1.32762
5 27.155 46.1635 -2.69109
5 29.8705 43.448 2.68948
5 28.5128 47.5213 -1.34445
5 31.2282 44.8058 -1.39488
5 32.586 46.1635 2.62298
5 35.3015 43.448 2.67038
5 33.9438 47.5213 -1.44312
5 36.6593 44.8058 -1.34959
5 38.017 46.1635 2.65295
5 40.7325 43.448 2.67151
5 39.3747 47.5213 -1.39945
5 42.0902 44.8058 -1.42137
5 43.448 46.1635 2.64212
5 46.1635 43.448 2.68335
5 44.8058 47.5213 -1.39413
5 47.5213 44.8058 -1.3556
1 48.8555 46.1584 2.71087
1 51.5801 43.4421 -2.71087
1 50.2631 47.4767 -1.33369
1 53.0424 44.7412 -1.42287
1 54.326 46.2078 2.68729
1 57.1437 43.5046 -2.66051
1 55.6147 47.5672 -1.44969
1 58.4131 44.9708 -1.31665
1 59.8544 46.2789 2.63404
1 62.4029 43.4719 2.66782
1 61.1492 47.5794 -1.45147
1 63.8181 44.8607 -1.45574
1 65.1847 46.3001 2.58322
1 67.8864 43.4427 2.70806
1 66.5446 47.6267 -1.45943
1 69.1611 44.7563 -1.38925
1 70.4515 46.1754 2.60039
1 73.3832 43.4665 2.62249
1 71.8845 47.5048 -1.45178
1 74.7727 44.8558 -1.51652
1 76.0915 46.1923 2.56862
1 78.8578 43.557 2.57842
1 77.4104 47.5366 -1.54822
1 80.2749 44.8147 -1.4979
1 81.5427 46.3172 2.54708
1 84.2077 43.5202 2.59774
1 82.8536 47.6199 -1.45297
1 85.6834 44.8571 -1.48367
1 86.9134 46.3132 2.61039
1 89.4667 43.5941 -2.6732
1 88.245 47.689 -1.43134
1 90.8448 44.987 -1.32563
1 92.239 46.4778 -2.64528
1 94.8614 43.7013 -2.69616
1 93.6226 47.8353 -1.32043
1 96.3144 45.0399 -1.39438
1 97.6564 46.3434 2.6837
1 100.366 43.5774 2.65474
1 99.0174 47.7414 -1.40895
1 101.635 44.9299 -1.35773
1 102.968 46.3626 2.6728
1 105.736 43.6163 2.63589
1 104.276 47.7351 -1.37427
1 107.065 45.0423 -1.41623
1 108.375 46.2696 -2.68331
5 0 51.5945 2.57754
5 2.7155 48.879 2.64053
5 1.35775 52.9522 -1.64768
5 4.07325 50.2368 -1.50163
5 5.431 51.5945 2.56851
5 8.1465 48.879 2.62507
5 6.78875 52.9522 -1.42812
5 9.50425 50.2368 -1.37979
5 10.862 51.5945 -2.69272
5 13.5775 48.879 -2.66952
5 12.2197 52.9522 -1.39708
5 14.9352 50.2368 -1.43616
5 16.293 51.5945 -2.69633
5 19.0085 48.879 2.68719
5 17.6507 52.9522 -1.33896
5 20.3663 50.2368 -1.34394
5 21.724 51.5945 -2.69455
5 24.4395 48.879 2.68998
5 23.0817 52.9522 -1.26596
5 25.7973 50.2368 -1.39947
5 27.155 51.5945 2.63398
5 29.8705 48.879 2.63662
5 28.5128 52.9522 -1.50085
5 31.2282 50.2368 -1.47108
5 32.586 51.5945 2.6301
5 35.3015 48.879 2.61251
5 33.9438 52.9522 -1.50733
5 36.6593 50.2368 -1.47034
5 38.017 51.5945 2.59325
5 40.7325 48.879 2.62687
5 39.3747 52.9522 -1.5399
5 42.0902 50.2368 -1.42688
5 43.448 51.5945 2.68125
5 46.1635 48.879 -2.71417
5 44.8058 52.9522 -1.3795
5 47.5213 50.2368 -1.3201
1 48.8911 51.6076 -2.71382
1 51.5316 48.8782 2.66942
1 50.2756 52.9729 -1.37201
1 52.8688 50.2568 -1.38221
1 54.3543 51.5878 -2.63643
1 56.9526 48.8882 2.65469
1 55.7016 53.0713 -1.41951
1 58.2895 50.2587 -1.42437
1 59.6262 51.6652 2.65947
1 62.4089 48.9843 2.63681
1 61.0144 53.1253 -1.39625
1 63.6861 50.3379 -1.38923
1 65.1172 51.5409 2.64191
1 67.8839 49.0043 2.68347
1 66.3534 52.9562 -1.33731
1 69.3125 50.3564 -1.49541
1 70.6397 51.7144 2.5634
1 73.2985 48.8232 2.64601
1 71.9448 53.0334 -1.35098
1 74.6424 50.2264 -1.47841
1 76.0809 51.5105 2.61574
1 78.799 48.9493 2.62702
1 77.4148 52.88 -1.36036
1 80.1745 50.3566 -1.48423
1 81.5336 51.7598 2.61982
1 84.2512 48.9386 2.65965
1 82.8167 53.1518 -1.47525
1 85.6067 50.4236 -1.41123
1 86.8672 51.8148 2.6448
1 89.6208 49.1041 2.63304
1 88.1438 53.2496 -1.51133
1 90.9394 50.574 -1.42155
1 92.2486 51.9436 2.58219
1 94.8759 49.118 -2.7148
1 93.5301 53.2918 -1.40889
1 96.1534 50.5058 -1.37122
1 97.6302 51.8451 2.69863
1 100.363 49.1902 -2.67866
1 98.9504 53.1408 -1.37371
1 101.778 50.4435 -1.37141
1 103.042 51.7868 2.68667
1 105.6 49.1122 -2.65279
1 104.491 53.222 -1.33806
1 107.006 50.3941 -1.27688
1 108.346 51.8423 -2.56603
5 2.7155 54.31 2.54749
5 8.1465 54.31 2.64951
5 13.5775 54.31 -2.68338
5 19.0085 54.31 -2.68381
5 24.4395 54.31 -2.67579
5 29.8705 54.31 2.66759
5 35.3015 54.31 2.59217
5 40.7325 54.31 2.5164
5 46.1635 54.31 2.66036
1 51.7665 54.2391 -2.63427
1 57.0768 54.4375 2.69895
1 62.4289 54.468 -2.62263
1 67.9565 54.1577 -2.65858
1 73.5251 54.3454 -2.61397
1 78.6293 54.2546 2.63401
1 84.2368 54.4858 2.62249
1 89.4621 54.66 2.50871
1 95.2114 54.5583 -2.56716
1 100.324 54.5841 -2.58652
1 105.791 54.5247 2.61447
5 0 0 0
5 2.7155 2.7155 0
5 1.35775 1.35775 1.35775
5 4.07325 4.07325 1.35775
5 5.431 0 0
5 8.1465 2.7155 0
5 6.78875 1.35775 1.35775
5 9.50425 4.07325 1.35775
5 10.862 0 0
5 13.5775 2.7155 0
5 12.2197 1.35775 1.35775
5 14.9352 4.07325 1.35775
5 16.293 0 0
5 19.0085 2.7155 0
5 17.6507 1.35775 1.35775
5 20.3663 4.07325 1.35775
5 21.724 0 0
5 24.4395 2.7155 0
5 23.0817 1.35775 1.35775
5 25.7973 4.07325 1.35775
5 27.155 0 0
5 29.8705 2.7155 0
5 28.5128 1.35775 1.35775
5 31.2282 4.07325 1.35775
5 32.586 0 0
5 35.3015 2.7155 0
5 33.9438 1.35775 1.35775
5 36.6593 4.07325 1.35775
5 38.017 0 0
5 40.7325 2.7155 0
5 39.3747 1.35775 1.35775
5 42.0902 4.07325 1.35775
5 43.448 0 0
5 46.1635 2.7155 0
5 44.8058 1.35775 1.35775
5 47.5213 4.07325 1.35775
4 48.879 0 0
4 51.5945 2.7155 0
4 50.2368 1.35775 1.35775
4 52.9522 4.07325 1.35775
4 54.31 0 0
4 57.0255 2.7155 0
4 55.6677 1.35775 1.35775
4 58.3833 4.07325 1.35775
4 59.741 0 0
4 62.4565 2.7155 0
4 61.0988 1.35775 1.35775
4 63.8143 4.07325 1.35775
4 65.172 0 0
4 67.8875 2.7155 0
4 66.5298 1.35775 1.35775
4 69.2452 4.07325 1.35775
4 70.603 0 0
4 73.3185 2.7155 0
4 71.9608 1.35775 1.35775
4 74.6762 4.07325 1.35775
4 76.034 0 0
4 78.7495 2.7155 0
4 77.3918 1.35775 1.35775
4 80.1073 4.07325 1.35775
4 81.465 0 0
4 84.1805 2.7155 0
4 82.8227 1.35775 1.35775
4 85.5383 4.07325 1.35775
4 86.896 0 0
4 89.6115 2.7155 0
4 88.2537 1.35775 1.35775
4 90.9693 4.07325 1.35775
4 92.327 0 0
4 95.0425 2.7155 0
4 93.6847 1.35775 1.35775
4 96.4002 4.07325 1.35775
4 97.758 0 0
4 100.474 2.7155 0
4 99.1158 1.35775 1.35775
4 101.831 4.07325 1.35775
4 103.189 0 0
4 105.904 2.7155 0
4 104.547 1.35775 1.35775
4 107.262 4.07325 1.35775
4 108.62 0 0
5 0 5.431 0
5 2.7155 8.1465 -0.030378
5 1.35775 6.78875 1.35775
5 4.07325 9.50425 1.31966
5 5.431 5.431 0
5 8.1465 8.1465 -0.00207584
5 6.78875 6.78875 1.35775
5 9.50425 9.50425 1.35242
5 10.862 5.431 0
5 13.5775 8.1465 -0.00491819
5 12.2197 6.78875 1.35775
5 14.9352 9.50425 1.31869
5 16.293 5.431 0
5 19.0085 8.1465 0.00290528
5 17.6507 6.78875 1.35775
5 20.3663 9.50425 1.35757
5 21.724 5.431 0
5 24.4395 8.1465 0.003671
5 23.0817 6.78875 1.35775
5 25.7973 9.50425 1.35541
5 27.155 5.431 0
5 29.8705 8.1465 0.0272404
5 28.5128 6.78875 1.35775
5 31.2282 9.50425 1.35189
5 32.586 5.431 0
5 35.3015 8.1465 0.00908262
5 33.9438 6.78875 1.35775
5 36.6593 9.50425 1.3219
5 38.017 5.431 0
5 40.7325 8.1465 0.0378749
5 39.3747 6.78875 1.35775
5 42.0902 9.50425 1.41817
5 43.448 5.431 0
5 46.1635 8.1465 0.0287579
5 44.8058 6.78875 1.35775
5 47.5213 9.50425 1.47408
4 48.879 5.431 0
1 51.6439 8.21847 0.0137285
4 50.2368 6.78875 1.35775
1 52.9303 9.55585 1.34075
4 54.31 5.431 0
1 57.0019 8.19208 0.0181032
4 55.6677 6.78875 1.35775
1 58.3392 9.55548 1.30448
4 59.741 5.431 0
1 62.4261 8.0967 -0.0117255
4 61.0988 6.78875 1.35775
1 63.7715 9.49561 1.45176
4 65.172 5.431 0
1 67.899 8.05856 -0.0333659
4 66.5298 6.78875 1.35775
1 69.1313 9.29669 1.36771
4 70.603 5.431 0
1 73.3413 8.03392 0.0275977
4 71.9608 6.78875 1.35775
1 74.7116 9.41955 1.40722
4 76.034 5.431 0
1 78.7257 8.18746 0.0873494
4 77.3918 6.78875 1.35775
1 80.1171 9.61341 1.35174
4 81.465 5.431 0
1 84.151 8.11286 -0.0121126
4 82.8227 6.78875 1.35775
1 85.5316 9.50376 1.28511
4 86.896 5.431 0
1 89.5231 8.15394 0.0310927
4 88.2537 6.78875 1.35775
1 90.9881 9.56632 1.41419
4 92.327 5.431 0
1 95.0475 8.15489 0.0104423
4 93.6847 6.78875 1.35775
1 96.4354 9.54109 1.36896
4 97.758 5.431 0
1 100.473 8.08128 0.0321303
4 99.1158 6.78875 1.35775
1 101.768 9.44995 1.41205
4 103.189 5.431 0
1 105.927 8.20961 0.0403099
4 104.547 6.78875 1.35775
1 107.207 9.71795 1.26829
4 108.62 5.431 0
5 0 10.862 -0.0123317
5 2.7155 13.5775 -0.0900773
5 1.35775 12.2197 1.31363
5 4.07325 14.9352 1.31552
5 5.431 10.862 -0.028277
5 8.1465 13.5775 0.0736872
5 6.78875 12.2197 1.35572
5 9.50425 14.9352 1.42897
5 10.862 10.862 -0.00815739
5 13.5775 13.5775 -0.00889917
5 12.2197 12.2197 1.39536
5 14.9352 14.9352 1.38529
5 16.293 10.862 0.0549538
5 19.0085 13.5775 0.0554889
5 17.6507 12.2197 1.37918
5 20.3663 14.9352 1.42657
5 21.724 10.862 0.0208951
5 24.4395 13.5775 0.114043
5 23.0817 12.2197 1.44745
5 25.7973 14.9352 1.4422
5 27.155 10.862 0.0476033
5 29.8705 13.5775 0.0464293
5 28.5128 12.2197 1.43601
5 31.2282 14.9352 1.44514
5 32.586 10.862 0.00606015
5 35.3015 13.5775 -0.0125542
5 33.9438 12.2197 1.32988
5 36.6593 14.9352 1.30038
5 38.017 10.862 -0.0451612
5 40.7325 13.5775 -0.0331181
5 39.3747 12.2197 1.29728
5 42.0902 14.9352 1.31001
5 43.448 10.862 0.0909414
5 46.1635 13.5775 0.049535
5 44.8058 12.2197 1.44404
5 47.5213 14.9352 1.35682
1 48.8806 10.8165 0.0166143
1 51.4491 13.6114 0.0917125
1 50.0913 12.2498 1.38115
1 52.8659 14.9338 1.5311
1 54.3506 10.8973 -0.00592457
1 57.0193 13.5452 -0.078289
1 55.6795 12.2659 1.31227
1 58.2818 14.9892 1.37976
1 59.761 10.8003 -0.112868
1 62.51 13.5472 -0.032986
1 61.0774 12.1772 1.31584
1 63.7988 14.9111 1.31934
1 65.1237 10.8678 0.0777449
1 67.9613 13.5221 -0.0605683
1 66.5161 12.2328 1.32639
1 69.233 14.806 1.31752
1 70.6125 10.5841 0.0264122
1 73.4115 13.5162 0.0703087
1 71.9274 12.0758 1.41001
1 74.7732 14.8557 1.53882
1 76.0729 10.8285 0.0564185
1 78.744 13.5941 0.114037
1 77.3701 12.2569 1.39627
1 80.1718 14.9461 1.43337
1 81.5008 10.9651 -0.036543
1 84.2741 13.608 -0.0378536
1 82.9237 12.296 1.32434
1 85.565 14.9496 1.35108
1 86.8705 10.9258 -0.119946
1 89.4927 13.561 -0.0356736
1 88.2214 12.1942 1.32814
1 90.887 14.8958 1.39109
1 92.2152 10.8862 -0.0795974
1 94.9958 13.7241 0.0569176
1 93.5537 12.2572 1.36746
1 96.3225 15.0123 1.35812
1 97.7896 10.8643 0.0376529
1 100.405 13.6005 -0.0356868
1 99.0466 12.3057 1.4106
1 101.732 14.9571 1.27712
1 103.046 10.7805 -0.070866
1 105.695 13.6577 -0.184765
1 104.437 12.2969 1.24397
1 107.067 15.1756 1.17012
1 108.519 11.1564 -0.0590076
5 0 16.293 -0.0173586
5 2.7155 19.0085 -0.0570092
5 1.35775 17.6507 1.35192
5 4.07325 20.3663 1.36604
5 5.431 16.293 -0.0322161
5 8.1465 19.0085 -0.0570884
5 6.78875 17.6507 1.33234
5 9.50425 20.3663 1.3112
5 10.862 16.293 0.0309824
5 13.5775 19.0085 0.0204994
5 12.2197 17.6507 1.40551
5 14.9352 20.3663 1.37085
5 16.293 16.293 0.0443708
5 19.0085 19.0085 0.0781517
5 17.6507 17.6507 1.44641
5 20.3663 20.3663 1.49943
5 21.724 16.293 0.0729903
5 24.4395 19.0085 0.0643199
5 23.0817 17.6507 1.44338
5 25.7973 20.3663 1.43578
5 27.155 16.293 0.113391
5 29.8705 19.0085 0.0910919
5 28.5128 17.6507 1.44486
5 31.2282 20.3663 1.41612
5 32.586 16.293 0.0942093
5 35.3015 19.0085 0.134152
5 33.9438 17.6507 1.47964
5 36.6593 20.3663 1.48442
5 38.017 16.293 -0.0915324
5 40.7325 19.0085 -0.0843803
5 39.3747 17.6507 1.28708
5 42.0902 20.3663 1.31284
5 43.448 16.293 -0.0153745
5 46.1635 19.0085 -0.00254269
5 44.8058 17.6507 1.36298
5 47.5213 20.3663 1.37264
1 48.911 16.3187 -0.00726789
1 51.5419 19.0234 0.147021
1 50.216 17.6342 1.3981
1 52.9438 20.3726 1.43755
1 54.1827 16.3007 0.0377168
1 56.9291 19.0055 0.0149408
1 55.6584 17.6264 1.38942
1 58.3354 20.2372 1.42406
1 59.7303 16.2316 -0.0185604
1 62.462 18.801 -0.0138796
1 60.9986 17.5939 1.36932
1 63.7173 20.0713 1.41557
1 65.2131 16.2335 0.0246346
1 67.9682 18.9823 -0.0134251
1 66.5415 17.6358 1.32386
1 69.2125 20.3568 1.47939
1 70.5765 16.1519 -0.0318509
1 73.2309 18.8642 -0.00184896
1 71.8501 17.5123 1.37474
1 74.5921 20.3021 1.32439
1 75.9447 16.2443 0.0811459
1 78.7267 19.0215 0.0534801
1 77.3467 17.6353 1.34421
1 80.0416 20.3527 1.39564
1 81.4739 16.2971 0.086761
1 84.0615 19.0988 0.05125
1 82.8283 17.6561 1.42891
1 85.501 20.5383 1.25543
1 86.8885 16.3302 -0.075387
1 89.5652 19.0867 0.0684605
1 88.2543 17.739 1.32924
1 90.8812 20.5621 1.36704
1 92.2033 16.3154 0.098217
1 94.8124 19.0462 0.0509987
1 93.4463 17.745 1.44419
1 96.2211 20.4131 1.38454
1 97.7441 16.3366 0.0173479
1 100.427 19.0854 -0.108306
1 99.138 17.8227 1.33659
1 101.738 20.4378 1.24413
1 103.061 16.3002 -0.111833
1 105.751 19.0563 -0.131483
1 104.322 17.7643 1.2296
1 107.128 20.5112 1.15928
1 108.477 16.1253 -0.435097
5 0 21.724 0.0148145
5 2.7155 24.4395 0.104191
5 1.35775 23.0817 1.42655
5 4.07325 25.7973 1.46704
5 5.431 21.724 0.0198245
5 8.1465 24.4395 0.0958405
5 6.78875 23.0817 1.4123
5 9.50425 25.7973 1.37623
5 10.862 21.724 -0.0333202
5 13.5775 24.4395 -0.0406121
5 12.2197 23.0817 1.33511
5 14.9352 25.7973 1.4391
5 16.293 21.724 0.0241251
5 19.0085 24.4395 0.052451
5 17.6507 23.0817 1.41187
5 20.3663 25.7973 1.36518
5 21.724 21.724 0.0929755
5 24.4395 24.4395 0.0511641