ITEM: TIMESTEP
0
ITEM: NUMBER OF ATOMS
1661
ITEM: BOX BOUNDS ss ss pp
-1.0862000000000000e-02 1.0863086200000001e+02
-5.4310000000000001e-03 5.4665419968490042e+01
-2.7155000000000000e+00 2.7155000000000000e+00
ITEM: ATOMS id type xs ys zs
831 5 9.998e-05 9.934e-05 0.5
2 5 0.025095 9.934e-05 0
4 5 0.0375925 0.0249343 0.25
835 5 0.05009 9.934e-05 0.5
6 5 0.075085 9.934e-05 0
8 5 0.0875825 0.0249343 0.25
839 5 0.10008 9.934e-05 0.5
10 5 0.125075 9.934e-05 0
12 5 0.137572 0.0249343 0.25
843 5 0.15007 9.934e-05 0.5
14 5 0.175065 9.934e-05 0
16 5 0.187562 0.0249343 0.25
847 5 0.20006 9.934e-05 0.5
18 5 0.225055 9.934e-05 0
20 5 0.237552 0.0249343 0.25
851 5 0.25005 9.934e-05 0.5
22 5 0.275045 9.934e-05 0
24 5 0.287542 0.0249343 0.25
855 5 0.30004 9.934e-05 0.5
26 5 0.325035 9.934e-05 0
28 5 0.337532 0.0249343 0.25
859 5 0.35003 9.934e-05 0.5
30 5 0.375025 9.934e-05 0
32 5 0.387522 0.0249343 0.25
863 5 0.40002 9.934e-05 0.5
34 5 0.425015 9.934e-05 0
36 5 0.437512 0.0249343 0.25
867 4 0.45001 9.934e-05 0.5
38 4 0.475005 9.934e-05 0
40 4 0.487502 0.0249343 0.25
871 4 0.5 9.934e-05 0.5
42 4 0.524995 9.934e-05 0
44 4 0.537493 0.0249343 0.25
875 4 0.54999 9.934e-05 0.5
46 4 0.574985 9.934e-05 0
48 4 0.587483 0.0249343 0.25
879 4 0.59998 9.934e-05 0.5
50 4 0.624975 9.934e-05 0
52 4 0.637473 0.0249343 0.25
883 4 0.64997 9.934e-05 0.5
54 4 0.674965 9.934e-05 0
56 4 0.687463 0.0249343 0.25
887 4 0.69996 9.934e-05 0.5
58 4 0.724955 9.934e-05 0
60 4 0.737453 0.0249343 0.25
891 4 0.74995 9.934e-05 0.5
62 4 0.774945 9.934e-05 0
64 4 0.787443 0.0249343 0.25
895 4 0.79994 9.934e-05 0.5
66 4 0.824935 9.934e-05 0
68 4 0.837433 0.0249343 0.25
899 4 0.84993 9.934e-05 0.5
70 4 0.874925 9.934e-05 0
72 4 0.887423 0.0249343 0.25
903 4 0.89992 9.934e-05 0.5
74 4 0.924915 9.934e-05 0
76 4 0.937413 0.0249343 0.25
907 4 0.94991 9.934e-05 0.5
78 4 0.974905 9.934e-05 0
80 4 0.987403 0.0249343 0.25
911 4 0.9999 9.934e-05 0.5
1 5 9.998e-05 0.0497693 0
832 5 0.025095 0.0497693 0.5
5 5 0.05009 0.0497693 0
836 5 0.075085 0.0497693 0.5
9 5 0.10008 0.0497693 0
840 5 0.125075 0.0497693 0.5
13 5 0.15007 0.0497693 0
844 5 0.175065 0.0497693 0.5
17 5 0.20006 0.0497693 0
848 5 0.225055 0.0497693 0.5
21 5 0.25005 0.0497693 0
852 5 0.275045 0.0497693 0.5
25 5 0.30004 0.0497693 0
856 5 0.325035 0.0497693 0.5
29 5 0.35003 0.0497693 0
860 5 0.375025 0.0497693 0.5
33 5 0.40002 0.0497693 0
864 5 0.425015 0.0497693 0.5
37 4 0.45001 0.0497693 0
868 4 0.475005 0.0497693 0.5
41 4 0.5 0.0497693 0
872 4 0.524995 0.0497693 0.5
45 4 0.54999 0.0497693 0
876 4 0.574985 0.0497693 0.5
49 4 0.59998 0.0497693 0
880 4 0.624975 0.0497693 0.5
53 4 0.64997 0.0497693 0
884 4 0.674965 0.0497693 0.5
57 4 0.69996 0.0497693 0
888 4 0.724955 0.0497693 0.5
61 4 0.74995 0.0497693 0
892 4 0.774945 0.0497693 0.5
65 4 0.79994 0.0497693 0
896 4 0.824935 0.0497693 0.5
69 4 0.84993 0.0497693 0
900 4 0.874925 0.0497693 0.5
73 4 0.89992 0.0497693 0
904 4 0.924915 0.0497693 0.5
77 4 0.94991 0.0497693 0
908 4 0.974905 0.0497693 0.5
81 4 0.9999 0.0497693 0
3 5 0.0125975 0.0746043 0.25
912 5 9.998e-05 0.0994393 0.5
83 5 0.025095 0.0994393 0
916 5 0.05009 0.0994393 0.5
7 5 0.0625875 0.0746043 0.25
87 5 0.075085 0.0994393 0
920 5 0.10008 0.0994393 0.5
11 5 0.112577 0.0746043 0.25
91 5 0.125075 0.0994393 0
15 5 0.162567 0.0746043 0.25
924 5 0.15007 0.0994393 0.5
95 5 0.175065 0.0994393 0
928 5 0.20006 0.0994393 0.5
19 5 0.212557 0.0746043 0.25
99 5 0.225055 0.0994393 0
932 5 0.25005 0.0994393 0.5
23 5 0.262547 0.0746043 0.25
103 5 0.275045 0.0994393 0
936 5 0.30004 0.0994393 0.5
27 5 0.312537 0.0746043 0.25
107 5 0.325035 0.0994393 0
940 5 0.35003 0.0994393 0.5
31 5 0.362527 0.0746043 0.25
111 5 0.375025 0.0994393 0
944 5 0.40002 0.0994393 0.5
35 5 0.412517 0.0746043 0.25
115 5 0.425015 0.0994393 0
948 4 0.45001 0.0994393 0.5
39 4 0.462507 0.0746043 0.25
119 4 0.475005 0.0994393 0
952 4 0.5 0.0994393 0.5
43 4 0.512498 0.0746043 0.25
123 4 0.524995 0.0994393 0
956 4 0.54999 0.0994393 0.5
47 4 0.562488 0.0746043 0.25
127 4 0.574985 0.0994393 0
960 4 0.59998 0.0994393 0.5
51 4 0.612478 0.0746043 0.25
131 4 0.624975 0.0994393 0
964 4 0.64997 0.0994393 0.5
55 4 0.662468 0.0746043 0.25
135 4 0.674965 0.0994393 0
968 4 0.69996 0.0994393 0.5
59 4 0.712458 0.0746043 0.25
139 4 0.724955 0.0994393 0
972 4 0.74995 0.0994393 0.5
63 4 0.762448 0.0746043 0.25
143 4 0.774945 0.0994393 0
976 4 0.79994 0.0994393 0.5
67 4 0.812438 0.0746043 0.25
147 4 0.824935 0.0994393 0
980 4 0.84993 0.0994393 0.5
71 4 0.862428 0.0746043 0.25
151 4 0.874925 0.0994393 0
984 4 0.89992 0.0994393 0.5
75 4 0.912418 0.0746043 0.25
155 4 0.924915 0.0994393 0
79 4 0.962408 0.0746043 0.25
988 4 0.94991 0.0994393 0.5
159 4 0.974905 0.0994393 0
992 4 0.9999 0.0994393 0.5
85 5 0.0375925 0.124274 0.25
89 5 0.0875825 0.124274 0.25
93 5 0.137572 0.124274 0.25
97 5 0.187562 0.124274 0.25
101 5 0.237552 0.124274 0.25
105 5 0.287542 0.124274 0.25
109 5 0.337532 0.124274 0.25
113 5 0.387522 0.124274 0.25
117 5 0.437512 0.124274 0.25
121 4 0.487502 0.124274 0.25
125 4 0.537493 0.124274 0.25
129 4 0.587483 0.124274 0.25
961 1 0.62508 0.147501 0.493856
133 4 0.637473 0.124274 0.25
137 4 0.687463 0.124274 0.25
141 4 0.737453 0.124274 0.25
145 4 0.787443 0.124274 0.25
149 4 0.837433 0.124274 0.25
153 4 0.887423 0.124274 0.25
157 4 0.937413 0.124274 0.25
161 4 0.987403 0.124274 0.25
84 5 0.0125975 0.173944 0.235272
82 5 9.998e-05 0.149109 1.21897e-05
913 5 0.025095 0.149109 0.494407
88 5 0.0625875 0.173944 0.244622
917 5 0.075085 0.149109 0.499618
92 5 0.112577 0.173944 0.252333
921 5 0.125075 0.149109 0.499094
96 5 0.162567 0.173944 0.25546
98 5 0.20006 0.149109 0.0034858
100 5 0.212557 0.173944 0.258873
104 5 0.262547 0.173944 0.259966
108 5 0.312537 0.173944 0.243279
106 5 0.30004 0.149109 0.00234243
112 5 0.362527 0.173944 0.251715
116 5 0.412517 0.173944 0.263725
118 1 0.450635 0.149649 0.0295566
120 1 0.463062 0.175787 0.257908
124 1 0.512572 0.17412 0.245116
128 1 0.562192 0.172241 0.238445
957 1 0.574706 0.148198 0.497841
130 1 0.599679 0.148733 0.0211984
132 1 0.61217 0.173167 0.262389
134 1 0.649775 0.148454 0.0022326
136 1 0.663255 0.172096 0.247684
138 1 0.700738 0.148511 0.0100059
140 1 0.713561 0.17427 0.25884
144 1 0.762005 0.174132 0.229998
973 1 0.774673 0.148494 0.49777
148 1 0.812407 0.174817 0.248486
152 1 0.862375 0.174157 0.255424
154 1 0.900634 0.149865 0.00755019
156 1 0.913518 0.174242 0.266981
160 1 0.961857 0.17255 0.242578
162 1 0.999192 0.151074 0.00190547
993 5 9.998e-05 0.198779 0.497729
164 5 0.025095 0.198779 0.00868257
997 5 0.05009 0.198779 0.494793
1001 5 0.10008 0.198779 0.498498
176 5 0.175065 0.198779 0.00970644
180 5 0.225055 0.198779 0.00232575
184 5 0.275045 0.198779 0.0105218
1021 5 0.35003 0.198779 0.491685
196 5 0.425015 0.198779 0.0139499
200 1 0.475644 0.200674 0.00419655
1033 1 0.500374 0.199425 0.498909
1037 1 0.550174 0.197651 0.479218
214 1 0.637095 0.219202 0.250872
1053 1 0.75028 0.200665 0.493271
1057 1 0.799705 0.199946 0.477915
1061 1 0.848901 0.199222 0.485344
236 1 0.923802 0.198092 0.0015842
238 1 0.936582 0.221985 0.256969
1069 1 0.94859 0.197289 0.486952
1073 1 0.998971 0.204165 0.489135
994 5 0.025095 0.248449 0.483414
166 5 0.0375925 0.223614 0.240135
170 5 0.0875825 0.223614 0.250874
171 5 0.10008 0.248449 0.00162967
1002 5 0.125075 0.248449 0.498361
174 5 0.137572 0.223614 0.250275
175 5 0.15007 0.248449 0.00961047
178 5 0.187562 0.223614 0.260781
179 5 0.20006 0.248449 0.00955784
182 5 0.237552 0.223614 0.266205
183 5 0.25005 0.248449 0.0221833
186 5 0.287542 0.223614 0.25187
187 5 0.30004 0.248449 0.010922
1018 5 0.325035 0.248449 0.497688
190 5 0.337532 0.223614 0.239329
1022 5 0.375025 0.248449 0.493902
194 5 0.387522 0.223614 0.258202
195 5 0.40002 0.248449 0.0108155
198 5 0.437512 0.223614 0.262547
199 1 0.44915 0.248175 0.0135442
202 1 0.487536 0.224726 0.272388
203 1 0.499944 0.248877 0.00861963
1034 1 0.524938 0.247858 0.485585
206 1 0.538095 0.224229 0.223701
210 1 0.587878 0.223057 0.253634
1038 1 0.575478 0.247895 0.493926
1042 1 0.625654 0.247435 0.488848
218 1 0.687661 0.223593 0.257337
219 1 0.701 0.248537 0.0192573
222 1 0.73726 0.225304 0.233778
223 1 0.750963 0.249785 0.00681372
1054 1 0.775806 0.249008 0.49303
226 1 0.78669 0.223585 0.236335
1058 1 0.823842 0.248148 0.493431
230 1 0.836525 0.224546 0.246225
231 1 0.849573 0.249869 0.0207711
234 1 0.886736 0.225811 0.264355
235 1 0.898852 0.248924 0.00780244
1066 1 0.924285 0.24887 0.493429
1070 1 0.972977 0.249916 0.46598
242 1 0.985538 0.226167 0.221758
165 5 0.0125975 0.273284 0.238622
169 5 0.0625875 0.273284 0.246719
173 5 0.112577 0.273284 0.264103
177 5 0.162567 0.273284 0.264809
181 5 0.212557 0.273284 0.279647
185 5 0.262547 0.273284 0.269547
189 5 0.312537 0.273284 0.24889
193 5 0.362527 0.273284 0.228807
197 5 0.412517 0.273284 0.255759
201 1 0.462024 0.27327 0.258857
205 1 0.512259 0.274714 0.255252
209 1 0.562577 0.272189 0.246617
213 1 0.613625 0.273017 0.241363
217 1 0.662798 0.271681 0.2539
1126 1 0.649726 0.295538 0.494135
221 1 0.712219 0.275029 0.264322
225 1 0.76254 0.273486 0.270689
229 1 0.812022 0.272145 0.24678
233 1 0.861157 0.276237 0.269038
237 1 0.912691 0.275184 0.230611
241 1 0.960538 0.273792 0.20292
1154 1 0.998588 0.295052 0.419886
1074 5 9.998e-05 0.298119 0.496804
247 5 0.0375925 0.322954 0.24465
1078 5 0.05009 0.298119 0.494068
251 5 0.0875825 0.322954 0.254648
249 5 0.075085 0.298119 0.00830877
253 5 0.125075 0.298119 0.0078493
255 5 0.137572 0.322954 0.26843
257 5 0.175065 0.298119 0.0193715
259 5 0.187562 0.322954 0.267773
263 5 0.237552 0.322954 0.26599
261 5 0.225055 0.298119 0.0204535
265 5 0.275045 0.298119 0.0202257
267 5 0.287542 0.322954 0.264554
269 5 0.325035 0.298119 0.00275574
271 5 0.337532 0.322954 0.251972
1102 5 0.35003 0.298119 0.483146
275 5 0.387522 0.322954 0.242873
1106 5 0.40002 0.298119 0.497169
279 5 0.437512 0.322954 0.263153
1110 1 0.450305 0.298589 0.498662
281 1 0.474413 0.298957 0.0155828
283 1 0.486408 0.323347 0.280856
287 1 0.536952 0.32397 0.269106
285 1 0.524686 0.298946 0.0131401
1118 1 0.549891 0.296996 0.496583
291 1 0.587496 0.319922 0.258215
295 1 0.637779 0.320396 0.242549
297 1 0.675047 0.297417 0.000978358
299 1 0.687078 0.322294 0.264299
301 1 0.724441 0.299051 0.00734986
303 1 0.737153 0.324367 0.258234
305 1 0.774544 0.298295 0.0187821
307 1 0.787142 0.325428 0.250745
1138 1 0.799871 0.298799 0.486119
309 1 0.824832 0.298123 0.00330277
311 1 0.836191 0.323906 0.248772
315 1 0.886348 0.323946 0.260602
319 1 0.936501 0.324159 0.215666
1150 1 0.948734 0.29825 0.479408
323 1 0.986145 0.323626 0.22305
244 5 9.998e-05 0.347789 0.00599008
1075 5 0.025095 0.347789 0.489503
248 5 0.05009 0.347789 0.00358503
1079 5 0.075085 0.347789 0.489488
252 5 0.10008 0.347789 0.00376948
256 5 0.15007 0.347789 0.0197781
260 5 0.20006 0.347789 0.0269479
264 5 0.25005 0.347789 0.0177615
268 5 0.30004 0.347789 0.0125235
1103 5 0.375025 0.347789 0.484463
1107 5 0.425015 0.347789 0.499532
284 1 0.498945 0.349022 0.0268341
290 1 0.562555 0.369609 0.26252
1119 1 0.575035 0.343994 0.497444
292 1 0.600045 0.344407 0.0210245
1123 1 0.625718 0.347311 0.497528
296 1 0.649811 0.345762 0.00762788
1127 1 0.674159 0.34515 0.49966
300 1 0.699352 0.346945 0.00325829
312 1 0.848327 0.35017 0.0137968
316 1 0.898444 0.349202 0.00182381
1147 1 0.924483 0.349196 0.480058
1151 1 0.973495 0.348663 0.47579
324 1 0.998174 0.352686 0.00961766
246 5 0.0125975 0.372624 0.250903
326 5 0.025095 0.397459 0.0191606
250 5 0.0625875 0.372624 0.24875
1163 5 0.10008 0.397459 0.493865
254 5 0.112577 0.372624 0.245323
258 5 0.162567 0.372624 0.26749
338 5 0.175065 0.397459 0.0179514
262 5 0.212557 0.372624 0.262247
342 5 0.225055 0.397459 0.0103622
266 5 0.262547 0.372624 0.251715
346 5 0.275045 0.397459 0.00938855
270 5 0.312537 0.372624 0.269797
350 5 0.325035 0.397459 0.0192181
274 5 0.362527 0.372624 0.249108
1187 5 0.40002 0.397459 0.495152
278 5 0.412517 0.372624 0.251303
358 5 0.425015 0.397459 0.00563992
282 1 0.46245 0.370706 0.255381
362 1 0.47535 0.397048 0.0287675
286 1 0.512268 0.373882 0.273956
366 1 0.524464 0.395658 0.0118277
294 1 0.612672 0.37046 0.264551
374 1 0.624529 0.397368 0.0156495
298 1 0.662137 0.371469 0.264397
302 1 0.71188 0.370416 0.271356
382 1 0.724863 0.39618 0.0122537
306 1 0.761682 0.375467 0.247222
386 1 0.774877 0.400087 0.00883768
310 1 0.812887 0.372082 0.234855
390 1 0.825062 0.400012 0.0194287
314 1 0.861348 0.373509 0.25584
394 1 0.874467 0.39919 0.0181036
318 1 0.911589 0.373645 0.235124
322 1 0.961403 0.375582 0.234393
1231 1 0.947975 0.399963 0.474642
1235 1 0.997862 0.398883 0.439856
328 5 0.0375925 0.422294 0.265855
332 5 0.0875825 0.422294 0.247487
336 5 0.137572 0.422294 0.24174
340 5 0.187562 0.422294 0.26212
344 5 0.237552 0.422294 0.256983
348 5 0.287542 0.422294 0.257051
352 5 0.337532 0.422294 0.25491
356 5 0.387522 0.422294 0.245572
360 5 0.437512 0.422294 0.246121
364 1 0.487143 0.423137 0.26755
368 1 0.537191 0.419575 0.261017
369 1 0.550999 0.44405 0.00304454
372 1 0.587738 0.417563 0.231139
1200 1 0.575461 0.442066 0.492448
376 1 0.637575 0.420963 0.256368
380 1 0.687357 0.42097 0.245272
384 1 0.737385 0.420897 0.258645
1212 1 0.724681 0.44375 0.497337
388 1 0.786846 0.423059 0.265304
392 1 0.837224 0.424858 0.273569
396 1 0.887272 0.425405 0.270045
400 1 0.936015 0.423725 0.225148
404 1 0.985158 0.424514 0.229164
327 5 0.0125975 0.471964 0.255722
325 5 9.998e-05 0.447129 0.0203175
329 5 0.05009 0.447129 0.0198552
331 5 0.0625875 0.471964 0.269128
335 5 0.112577 0.471964 0.252372
1164 5 0.125075 0.447129 0.492522
339 5 0.162567 0.471964 0.249608
337 5 0.15007 0.447129 0.00228679
341 5 0.20006 0.447129 0.00278302
343 5 0.212557 0.471964 0.254118
345 5 0.25005 0.447129 0.00631629
347 5 0.262547 0.471964 0.264284
351 5 0.312537 0.471964 0.256555
349 5 0.30004 0.447129 0.00768569
353 5 0.35003 0.447129 0.000323975
355 5 0.362527 0.471964 0.246163
1184 5 0.375025 0.447129 0.497364
359 5 0.412517 0.471964 0.259476
363 1 0.462211 0.472296 0.260396
361 1 0.450475 0.446293 0.00350709
365 1 0.500336 0.447665 0.026311
367 1 0.51293 0.472301 0.255838
371 1 0.562699 0.469274 0.248666
373 1 0.599907 0.445639 0.00776839
375 1 0.612376 0.469718 0.254466
1204 1 0.62464 0.444635 0.493159
377 1 0.650632 0.444579 0.00857201
379 1 0.662773 0.470465 0.2513
1208 1 0.675408 0.446995 0.494224
383 1 0.712385 0.469553 0.245992
385 1 0.749309 0.446632 0.00143048
387 1 0.761246 0.469926 0.253377
389 1 0.799534 0.447525 0.00586595
391 1 0.811859 0.472628 0.249005
393 1 0.849485 0.448876 0.0173575
395 1 0.861962 0.473995 0.267246
397 1 0.899806 0.450827 0.0132857
399 1 0.910855 0.475172 0.249405
1228 1 0.923201 0.450482 0.486733
403 1 0.961672 0.473382 0.22441
1232 1 0.973555 0.44848 0.48582
407 5 0.025095 0.496799 0.0113768
411 5 0.075085 0.496799 0.0212968
415 5 0.125075 0.496799 0.00335736
419 5 0.175065 0.496799 0.00984374
423 5 0.225055 0.496799 0.0107417
427 5 0.275045 0.496799 0.018533
1260 5 0.30004 0.496799 0.499901
1264 5 0.35003 0.496799 0.499507
435 5 0.375025 0.496799 0.00632645
439 5 0.425015 0.496799 0.00316071
443 1 0.475293 0.497333 0.0381921
447 1 0.524906 0.496792 0.00680219
451 1 0.57531 0.495683 0.00450922
1284 1 0.599397 0.49636 0.493473
1288 1 0.650211 0.495148 0.498909
1292 1 0.699862 0.495274 0.488357
1296 1 0.749754 0.495425 0.493973
467 1 0.774427 0.495284 0.000184793
471 1 0.824787 0.496851 0.0194796
475 1 0.874033 0.499546 0.0199187
1312 1 0.948751 0.498121 0.472365
1316 1 0.999121 0.496064 0.470405
406 5 9.998e-05 0.546469 0.0189555
409 5 0.0375925 0.521634 0.260153
410 5 0.05009 0.546469 0.0138974
413 5 0.0875825 0.521634 0.265313
414 5 0.10008 0.546469 0.00798124
417 5 0.137572 0.521634 0.25584
418 5 0.15007 0.546469 0.00391961
421 5 0.187562 0.521634 0.252565
422 5 0.20006 0.546469 0.0173001
425 5 0.237552 0.521634 0.25655
426 5 0.25005 0.546469 0.0106229
429 5 0.287542 0.521634 0.262939
1261 5 0.325035 0.546469 0.491869
433 5 0.337532 0.521634 0.24081
434 5 0.35003 0.546469 0.00430918
437 5 0.387522 0.521634 0.255719
438 5 0.40002 0.546469 0.00132064
441 5 0.437512 0.521634 0.268685
442 1 0.450758 0.54557 0.0101292
445 1 0.487666 0.520531 0.283148
446 1 0.500202 0.545084 0.0164755
449 1 0.537266 0.520398 0.268872
450 1 0.55029 0.544152 0.0213812
453 1 0.587369 0.522065 0.250881
457 1 0.637015 0.520722 0.251703
458 1 0.64963 0.547469 0.0125708
461 1 0.686681 0.521441 0.245804
462 1 0.699917 0.546843 0.00682954
465 1 0.737724 0.51883 0.242168
1293 1 0.725489 0.545607 0.496182
466 1 0.750761 0.543074 0.00380831
469 1 0.786137 0.521732 0.255411
470 1 0.799427 0.548277 0.0166655
473 1 0.837763 0.522386 0.252189
477 1 0.886889 0.524476 0.234448
1305 1 0.874807 0.549184 0.498288
1309 1 0.924098 0.548431 0.473562
481 1 0.936919 0.523868 0.227483
485 1 0.987462 0.523124 0.23832
486 1 0.999037 0.550224 0.010722
408 5 0.0125975 0.571304 0.265213
412 5 0.0625875 0.571304 0.253858
416 5 0.112577 0.571304 0.252247
420 5 0.162567 0.571304 0.251299
424 5 0.212557 0.571304 0.271257
428 5 0.262547 0.571304 0.261834
432 5 0.312537 0.571304 0.251374
436 5 0.362527 0.571304 0.252868
440 5 0.412517 0.571304 0.250946
444 1 0.462637 0.570853 0.279832
448 1 0.512452 0.569342 0.26214
452 1 0.562619 0.571113 0.259949
456 1 0.612643 0.57114 0.245249
460 1 0.663259 0.571054 0.255188
464 1 0.712867 0.571367 0.246814
468 1 0.762668 0.571037 0.258873
472 1 0.811898 0.572194 0.271027
476 1 0.861784 0.574943 0.236993
480 1 0.911579 0.573868 0.234163
484 1 0.961135 0.571341 0.249092
1317 5 9.998e-05 0.596139 0.497457
488 5 0.025095 0.596139 0.0171324
490 5 0.0375925 0.620974 0.246599
1321 5 0.05009 0.596139 0.491742
494 5 0.0875825 0.620974 0.258603
492 5 0.075085 0.596139 0.0125532
496 5 0.125075 0.596139 0.0034739
498 5 0.137572 0.620974 0.237539
1329 5 0.15007 0.596139 0.492658
500 5 0.175065 0.596139 0.00122776
502 5 0.187562 0.620974 0.257173
506 5 0.237552 0.620974 0.269337
504 5 0.225055 0.596139 0.0148223
508 5 0.275045 0.596139 0.00947085
510 5 0.287542 0.620974 0.251497
1341 5 0.30004 0.596139 0.498921
514 5 0.337532 0.620974 0.258991
518 5 0.387522 0.620974 0.245444
1349 5 0.40002 0.596139 0.4999
520 5 0.425015 0.596139 0.00646411
522 5 0.437512 0.620974 0.261266
524 1 0.474433 0.594789 0.00630103
526 1 0.487453 0.620206 0.244567
528 1 0.524496 0.595513 0.00444386
530 1 0.537153 0.621083 0.263971
534 1 0.587757 0.61875 0.240361
532 1 0.57547 0.594719 6.43405e-05
1365 1 0.600404 0.595379 0.490042
538 1 0.639455 0.620461 0.240109
542 1 0.688266 0.6218 0.239192
546 1 0.737809 0.623055 0.248456
548 1 0.774545 0.59638 0.00415665
550 1 0.786976 0.622022 0.241436
552 1 0.825067 0.59661 0.0159451
554 1 0.838328 0.623188 0.260727
558 1 0.887353 0.623314 0.247313
562 1 0.937381 0.623688 0.228633
1393 1 0.949284 0.597229 0.487763
566 1 0.987654 0.620082 0.237018
1397 1 0.999201 0.594115 0.482954
487 5 9.998e-05 0.645809 0.0153637
1318 5 0.025095 0.645809 0.490682
491 5 0.05009 0.645809 0.00212974
1322 5 0.075085 0.645809 0.495987
495 5 0.10008 0.645809 0.000892857
1330 5 0.175065 0.645809 0.492479
503 5 0.20006 0.645809 0.00744281
507 5 0.25005 0.645809 0.0129168
511 5 0.30004 0.645809 0.0107133
515 5 0.35003 0.645809 0.0117776
523 1 0.449914 0.646235 0.00986375
1354 1 0.474352 0.644568 0.49837
531 1 0.550735 0.644868 0.0210583
1362 1 0.575385 0.646137 0.494589
1366 1 0.626549 0.645521 0.475651
1370 1 0.676213 0.644763 0.48825
1378 1 0.77456 0.64681 0.487015
551 1 0.800235 0.646297 0.00306946
1382 1 0.824984 0.647405 0.499889
555 1 0.849605 0.649799 0.00197209
1390 1 0.924657 0.647038 0.496174
1394 1 0.974702 0.647351 0.478619
567 1 0.99953 0.647241 0.00108251
489 5 0.0125975 0.670644 0.27189
569 5 0.025095 0.695479 0.0101877
1402 5 0.05009 0.695479 0.494713
493 5 0.0625875 0.670644 0.258598
497 5 0.112577 0.670644 0.25443
501 5 0.162567 0.670644 0.241678
1410 5 0.15007 0.695479 0.488329
505 5 0.212557 0.670644 0.261588
585 5 0.225055 0.695479 0.0180677
509 5 0.262547 0.670644 0.260532
589 5 0.275045 0.695479 0.0147849
513 5 0.312537 0.670644 0.261731
593 5 0.325035 0.695479 0.00808866
517 5 0.362527 0.670644 0.256238
597 5 0.375025 0.695479 0.0157257
521 5 0.412517 0.670644 0.258729
601 5 0.425015 0.695479 0.00368567
525 1 0.462591 0.67102 0.248574
1434 1 0.449789 0.695531 0.491584
1438 1 0.499468 0.695397 0.482308
529 1 0.512099 0.669465 0.261658
609 1 0.524889 0.696149 0.00671168
533 1 0.562448 0.672544 0.266768
613 1 0.575128 0.696938 0.0178868
537 1 0.612432 0.669834 0.24804
541 1 0.663451 0.670868 0.254431
1450 1 0.649467 0.695548 0.490714
1454 1 0.700124 0.695624 0.482982
545 1 0.713644 0.670467 0.236886
1458 1 0.750006 0.694656 0.48814
549 1 0.761966 0.671135 0.234181
553 1 0.812538 0.671678 0.265422
1462 1 0.79969 0.695766 0.499688
633 1 0.824807 0.697356 0.0186867
557 1 0.861681 0.673562 0.260285
561 1 0.913023 0.672236 0.241051
641 1 0.925158 0.697109 0.000705217
565 1 0.962426 0.672526 0.250529
1474 1 0.949667 0.6969 0.497453
1478 1 0.999873 0.695705 0.480142
571 5 0.0375925 0.720314 0.254307
575 5 0.0875825 0.720314 0.254601
579 5 0.137572 0.720314 0.238036
583 5 0.187562 0.720314 0.249564
587 5 0.237552 0.720314 0.262232
591 5 0.287542 0.720314 0.270429
595 5 0.337532 0.720314 0.252657
599 5 0.387522 0.720314 0.258197
603 5 0.437512 0.720314 0.235764
607 1 0.488116 0.720517 0.227673
611 1 0.537844 0.720924 0.249929
615 1 0.58844 0.719804 0.25431
619 1 0.637098 0.719665 0.223218
623 1 0.68842 0.721876 0.223106
627 1 0.738345 0.72102 0.239367
631 1 0.787646 0.721338 0.236799
635 1 0.837247 0.722004 0.255469
639 1 0.888198 0.722468 0.242613
643 1 0.936828 0.722948 0.25445
647 1 0.986998 0.722063 0.23966
570 5 0.0125975 0.769984 0.252042
568 5 9.998e-05 0.745149 0.00125146
572 5 0.05009 0.745149 0.00259742
574 5 0.0625875 0.769984 0.244516
578 5 0.112577 0.769984 0.249128
1407 5 0.125075 0.745149 0.495067
582 5 0.162567 0.769984 0.243296
584 5 0.20006 0.745149 0.0124231
586 5 0.212557 0.769984 0.261401
588 5 0.25005 0.745149 0.00327705
590 5 0.262547 0.769984 0.254054
594 5 0.312537 0.769984 0.235735
1423 5 0.325035 0.745149 0.485351
596 5 0.35003 0.745149 0.00275493
598 5 0.362527 0.769984 0.248389
600 5 0.40002 0.745149 0.00326756
602 5 0.412517 0.769984 0.24521
1431 5 0.425015 0.745149 0.498454
606 1 0.462253 0.770611 0.2404
1435 1 0.476 0.746506 0.477079
610 1 0.51364 0.771253 0.24558
608 1 0.50127 0.745064 0.00026512
614 1 0.563064 0.771099 0.25571
1443 1 0.575355 0.744018 0.492353
618 1 0.612892 0.769881 0.238657
1447 1 0.625146 0.743683 0.484595
622 1 0.663224 0.769527 0.232894
1451 1 0.675805 0.744648 0.48834
626 1 0.712786 0.772335 0.240708
1455 1 0.725226 0.745432 0.473309
630 1 0.763042 0.771298 0.238752
1459 1 0.775373 0.745306 0.48242
632 1 0.799869 0.74759 0.00165558
634 1 0.811723 0.771911 0.254025
1463 1 0.824149 0.746685 0.492587
638 1 0.861214 0.772489 0.245266
1467 1 0.874264 0.745919 0.488847
642 1 0.911607 0.771678 0.22921
1471 1 0.923874 0.747505 0.497381
646 1 0.961202 0.7704 0.240674
1475 1 0.974007 0.746505 0.480134
1479 5 9.998e-05 0.794819 0.48633
1491 5 0.15007 0.794819 0.489177
666 5 0.225055 0.794819 0.0044071
1503 5 0.30004 0.794819 0.495354
1507 5 0.35003 0.794819 0.493612
1511 5 0.40002 0.794819 0.498671
1515 1 0.450193 0.794876 0.49615
686 1 0.474872 0.794712 0.000852285
690 1 0.526083 0.795854 0.0101257
1523 1 0.549452 0.794476 0.496118
1527 1 0.599864 0.794394 0.47666
1531 1 0.649123 0.793091 0.49125
1535 1 0.699932 0.796007 0.482688
1539 1 0.750036 0.794582 0.489847
714 1 0.823602 0.797492 0.00778891
718 1 0.873258 0.799452 0.00356075
1551 1 0.898633 0.796265 0.479672
1555 1 0.949021 0.796991 0.487758
1559 1 0.998116 0.798161 0.480959
1480 5 0.025095 0.844489 0.496497
652 5 0.0375925 0.819654 0.249328
656 5 0.0875825 0.819654 0.242374
1484 5 0.075085 0.844489 0.487485
657 5 0.10008 0.844489 0.00444077
1488 5 0.125075 0.844489 0.494445
660 5 0.137572 0.819654 0.239817
1492 5 0.175065 0.844489 0.494768
664 5 0.187562 0.819654 0.252914
665 5 0.20006 0.844489 0.00148336
668 5 0.237552 0.819654 0.255548
669 5 0.25005 0.844489 0.00449481
1500 5 0.275045 0.844489 0.495221
672 5 0.287542 0.819654 0.243164
1504 5 0.325035 0.844489 0.497515
676 5 0.337532 0.819654 0.251503
680 5 0.387522 0.819654 0.238285
1508 5 0.375025 0.844489 0.489859
1512 5 0.425015 0.844489 0.497321
684 5 0.437512 0.819654 0.250396
1516 1 0.475506 0.844001 0.492978
688 1 0.488332 0.818473 0.23801
1520 1 0.524553 0.845457 0.491936
692 1 0.537768 0.822674 0.257569
696 1 0.587518 0.82066 0.231957
1524 1 0.574982 0.844642 0.490658
1528 1 0.624093 0.844175 0.474527
700 1 0.636698 0.818749 0.244199
1532 1 0.674879 0.843853 0.464101
704 1 0.68835 0.820569 0.220767
708 1 0.738996 0.819818 0.224195
1536 1 0.726033 0.845505 0.46626
1540 1 0.776043 0.845263 0.481558
712 1 0.788778 0.820594 0.226814
716 1 0.836287 0.822969 0.255914
717 1 0.84912 0.850238 0.0129299
720 1 0.886632 0.823936 0.243256
724 1 0.935606 0.821925 0.250004
1556 1 0.972743 0.847559 0.49674
728 1 0.985585 0.82398 0.239232
729 1 0.997644 0.846429 0.00592784
651 5 0.0125975 0.869324 0.235845
655 5 0.0625875 0.869324 0.23704
659 5 0.112577 0.869324 0.255753
663 5 0.162567 0.869324 0.246641
667 5 0.212557 0.869324 0.237689
671 5 0.262547 0.869324 0.252449
675 5 0.312537 0.869324 0.234282
679 5 0.362527 0.869324 0.242322
683 5 0.412517 0.869324 0.243302
687 1 0.46275 0.86851 0.25443
691 1 0.51201 0.870165 0.233071
695 1 0.562952 0.870387 0.232743
699 1 0.612614 0.871254 0.231277
703 1 0.661766 0.869023 0.232687
707 1 0.712629 0.869605 0.214929
711 1 0.762731 0.871128 0.232467
715 1 0.812357 0.872392 0.23645
719 1 0.861856 0.875069 0.256872
723 1 0.911512 0.873351 0.240572
727 1 0.959918 0.873236 0.246958
1560 5 9.998e-05 0.894159 0.485841
733 5 0.0375925 0.918994 0.223508
1564 5 0.05009 0.894159 0.477909
737 5 0.0875825 0.918994 0.245941
739 5 0.125075 0.894159 0.00846659
741 5 0.137572 0.918994 0.235563
1572 5 0.15007 0.894159 0.488385
745 5 0.187562 0.918994 0.252543
1576 5 0.20006 0.894159 0.499276
749 5 0.237552 0.918994 0.242318
1580 5 0.25005 0.894159 0.494639
753 5 0.287542 0.918994 0.229132
1584 5 0.30004 0.894159 0.476102
757 5 0.337532 0.918994 0.229268
1588 5 0.35003 0.894159 0.486897
761 5 0.387522 0.918994 0.237272
1592 5 0.40002 0.894159 0.496321
763 5 0.425015 0.894159 0.000245288
765 5 0.437512 0.918994 0.256933
1596 1 0.450472 0.893915 0.487928
769 1 0.486734 0.919361 0.245495
1600 1 0.499052 0.894324 0.488484
773 1 0.536629 0.919396 0.237734
1604 1 0.549025 0.895215 0.480981
777 1 0.586303 0.920844 0.244203
1608 1 0.599934 0.896038 0.48216
781 1 0.638091 0.921183 0.224653
1612 1 0.649192 0.895636 0.495635
785 1 0.687151 0.918804 0.227783
1616 1 0.700126 0.894183 0.461184
789 1 0.738072 0.921186 0.226711
1620 1 0.750919 0.897773 0.484036
793 1 0.788072 0.922411 0.240153
1624 1 0.800645 0.896734 0.489836
797 1 0.837157 0.925163 0.238253
1628 1 0.848704 0.899393 0.491015
799 1 0.873391 0.89853 0.000129057
801 1 0.885151 0.923915 0.24752
1632 1 0.897452 0.898048 0.477179
803 1 0.923895 0.899851 0.00678249
805 1 0.936918 0.922776 0.247486
807 1 0.972101 0.898425 0.0115459
809 1 0.985044 0.921872 0.26489
1561 5 0.025095 0.943829 0.475274
1565 5 0.075085 0.943829 0.491833
738 5 0.10008 0.943829 0.00419414
1569 5 0.125075 0.943829 0.494114
742 5 0.15007 0.943829 0.00352913
1573 5 0.175065 0.943829 0.496532
746 5 0.20006 0.943829 0.00385665
1577 5 0.225055 0.943829 0.495483
1581 5 0.275045 0.943829 0.479427
1585 5 0.325035 0.943829 0.46411
1589 5 0.375025 0.943829 0.48404
766 1 0.450121 0.944069 0.000310064
770 1 0.500408 0.943707 0.0145588
1609 1 0.62469 0.943583 0.483273
1613 1 0.674343 0.94259 0.481578
1617 1 0.725611 0.943544 0.492312
1621 1 0.775464 0.947346 0.488442
1625 1 0.823937 0.949584 0.477845
1633 1 0.923362 0.947488 0.479948
810 1 0.997375 0.948361 0.0275215
732 5 0.0125975 0.968664 0.196615
1641 5 9.998e-05 0.993499 0.440364
1642 5 0.05009 0.993499 0.48139
736 5 0.0625875 0.968664 0.237042
1643 5 0.10008 0.993499 0.495895
740 5 0.112577 0.968664 0.242758
813 5 0.125075 0.993499 0.00591505
744 5 0.162567 0.968664 0.25346
1644 5 0.15007 0.993499 0.496619
814 5 0.175065 0.993499 0.00583565
748 5 0.212557 0.968664 0.266901
815 5 0.225055 0.993499 0.00731109
1646 5 0.25005 0.993499 0.485021
752 5 0.262547 0.968664 0.22365
756 5 0.312537 0.968664 0.222458
1647 5 0.30004 0.993499 0.468351
1648 5 0.35003 0.993499 0.471346
760 5 0.362527 0.968664 0.216461
1649 5 0.40002 0.993499 0.473781
764 5 0.412517 0.968664 0.245996
768 1 0.462865 0.969042 0.247375
820 1 0.476588 0.992201 0.0149575
1651 1 0.499196 0.993025 0.482391
772 1 0.512809 0.970842 0.238628
1652 1 0.550751 0.996534 0.494009
776 1 0.561711 0.971829 0.24291
822 1 0.574731 0.996388 0.0171004
1653 1 0.598994 0.995292 0.465333
780 1 0.610854 0.968737 0.253763
823 1 0.62561 0.990714 0.0104805
784 1 0.66232 0.970149 0.251246
1654 1 0.649897 0.995166 0.492425
824 1 0.676866 0.994147 0.0186949
1655 1 0.699288 0.991655 0.474897
788 1 0.712669 0.967342 0.24952
1656 1 0.748897 0.995345 0.443184
792 1 0.762392 0.972314 0.228365
796 1 0.811426 0.974103 0.221722
1658 1 0.848756 0.999812 0.475
800 1 0.861004 0.974875 0.240584
828 1 0.876479 0.998041 0.0273135
1659 1 0.899351 0.997518 0.495844
804 1 0.910896 0.972114 0.247061
829 1 0.923535 0.998512 0.023749
808 1 0.961897 0.973598 0.253626
1660 1 0.948378 0.997806 0.48991
1661 1 0.997551 0.9929 0.495557
833 5 0.0125975 0.0249343 0.75
837 5 0.0625875 0.0249343 0.75
841 5 0.112577 0.0249343 0.75
845 5 0.162567 0.0249343 0.75
849 5 0.212557 0.0249343 0.75
853 5 0.262547 0.0249343 0.75
857 5 0.312537 0.0249343 0.75
861 5 0.362527 0.0249343 0.75
865 5 0.412517 0.0249343 0.75
869 4 0.462507 0.0249343 0.75
873 4 0.512498 0.0249343 0.75
877 4 0.562488 0.0249343 0.75
881 4 0.612478 0.0249343 0.75
885 4 0.662468 0.0249343 0.75
889 4 0.712458 0.0249343 0.75
893 4 0.762448 0.0249343 0.75
897 4 0.812438 0.0249343 0.75
901 4 0.862428 0.0249343 0.75
905 4 0.912418 0.0249343 0.75
909 4 0.962408 0.0249343 0.75
834 5 0.0375925 0.0746043 0.75
838 5 0.0875825 0.0746043 0.75
842 5 0.137572 0.0746043 0.75
846 5 0.187562 0.0746043 0.75