1661
 Atoms. Timestep: 15000
5 0 10.862 -2.7155
5 2.7155 8.1465 -2.7155
5 1.35775 12.2197 -1.35775
5 4.07325 9.50425 -1.35775
5 5.431 10.862 -2.7155
5 8.1465 8.1465 -2.7155
5 6.78875 12.2197 -1.35775
5 9.50425 9.50425 -1.35775
5 10.862 10.862 -2.7155
5 13.5775 8.1465 -2.7155
5 12.2197 12.2197 -1.35775
5 14.9352 9.50425 -1.35775
5 16.293 10.862 -2.7155
5 19.0085 8.1465 -2.7155
5 17.6507 12.2197 -1.35775
5 20.3663 9.50425 -1.35775
5 21.724 10.862 -2.7155
5 24.4395 8.1465 -2.7155
5 23.0817 12.2197 -1.35775
5 25.7973 9.50425 -1.35775
5 27.155 10.862 -2.7155
5 29.8705 8.1465 -2.7155
5 28.5128 12.2197 -1.35775
5 31.2282 9.50425 -1.35775
5 32.586 10.862 -2.7155
5 35.3015 8.1465 -2.7155
5 33.9438 12.2197 -1.35775
5 36.6593 9.50425 -1.35775
5 38.017 10.862 -2.7155
5 40.7325 8.1465 -2.7155
5 39.3747 12.2197 -1.35775
5 42.0902 9.50425 -1.35775
5 43.448 10.862 -2.7155
5 46.1635 8.1465 -2.7155
5 44.8058 12.2197 -1.35775
5 47.5213 9.50425 -1.35775
4 48.879 2.7155 -2.7155
4 51.5945 0 -2.7155
4 50.2368 4.07325 -1.35775
4 52.9522 1.35775 -1.35775
4 54.31 2.7155 -2.7155
4 57.0255 0 -2.7155
4 55.6677 4.07325 -1.35775
4 58.3833 1.35775 -1.35775
4 59.741 2.7155 -2.7155
4 62.4565 0 -2.7155
4 61.0988 4.07325 -1.35775
4 63.8143 1.35775 -1.35775
4 65.172 2.7155 -2.7155
4 67.8875 0 -2.7155
4 66.5298 4.07325 -1.35775
4 69.2452 1.35775 -1.35775
4 70.603 2.7155 -2.7155
4 73.3185 0 -2.7155
4 71.9608 4.07325 -1.35775
4 74.6762 1.35775 -1.35775
4 76.034 2.7155 -2.7155
4 78.7495 0 -2.7155
4 77.3918 4.07325 -1.35775
4 80.1073 1.35775 -1.35775
4 81.465 2.7155 -2.7155
4 84.1805 0 -2.7155
4 82.8227 4.07325 -1.35775
4 85.5383 1.35775 -1.35775
4 86.896 2.7155 -2.7155
4 89.6115 0 -2.7155
4 88.2537 4.07325 -1.35775
4 90.9693 1.35775 -1.35775
4 92.327 2.7155 -2.7155
4 95.0425 0 -2.7155
4 93.6847 4.07325 -1.35775
4 96.4002 1.35775 -1.35775
4 97.758 2.7155 -2.7155
4 100.474 0 -2.7155
4 99.1158 4.07325 -1.35775
4 101.831 1.35775 -1.35775
4 103.189 2.7155 -2.7155
4 105.904 0 -2.7155
4 104.547 4.07325 -1.35775
4 107.262 1.35775 -1.35775
4 108.62 2.7155 -2.7155
5 0 16.293 -2.71543
5 2.7155 13.5775 -2.7155
5 1.35775 17.6508 -1.43774
5 4.07325 14.9352 -1.35775
5 5.431 16.293 2.70864
5 8.1465 13.5775 -2.7155
5 6.78875 17.6508 -1.38696
5 9.50425 14.9352 -1.35775
5 10.862 16.293 2.70796
5 13.5775 13.5775 -2.7155
5 12.2197 17.6508 -1.34508
5 14.9352 14.9352 -1.35775
5 16.293 16.293 2.71168
5 19.0085 13.5775 -2.7155
5 17.6507 17.6508 -1.3281
5 20.3663 14.9352 -1.35775
5 21.724 16.293 -2.69657
5 24.4395 13.5775 -2.7155
5 23.0817 17.6508 -1.30956
5 25.7973 14.9352 -1.35775
5 27.155 16.293 2.69053
5 29.8705 13.5775 -2.7155
5 28.5128 17.6508 -1.30363
5 31.2282 14.9352 -1.35775
5 32.586 16.293 -2.70278
5 35.3015 13.5775 -2.7155
5 33.9438 17.6508 -1.39425
5 36.6593 14.9352 -1.35775
5 38.017 16.293 2.70511
5 40.7325 13.5775 -2.7155
5 39.3747 17.6508 -1.34844
5 42.0902 14.9352 -1.35775
5 43.448 16.293 2.71351
5 46.1635 13.5775 -2.7155
5 44.8058 17.6508 -1.28321
5 47.5213 14.9352 -1.35775
1 48.681 16.6189 -2.47298
4 51.5945 5.431 -2.7155
1 51.527 11.3615 2.37831
4 52.9522 6.78875 -1.35775
1 54.244 8.35247 2.6008
4 57.0255 5.431 -2.7155
1 55.6066 9.73579 -1.48254
4 58.3833 6.78875 -1.35775
1 59.7559 8.28679 2.74343
4 62.4565 5.431 -2.7155
1 60.7561 10.0872 -1.17917
4 63.8143 6.78875 -1.35775
1 65.0207 8.30735 2.52972
4 67.8875 5.431 -2.7155
1 66.1397 9.78738 -1.36095
4 69.2452 6.78875 -1.35775
1 70.4357 8.40928 2.61486
4 73.3185 5.431 -2.7155
1 71.729 9.89013 -1.35102
4 74.6762 6.78875 -1.35775
1 75.9773 8.36525 2.69315
4 78.7495 5.431 -2.7155
1 77.2309 9.76184 -1.29661
4 80.1073 6.78875 -1.35775
1 81.404 8.15804 2.66894
4 84.1805 5.431 -2.7155
1 82.6738 9.58639 -1.28902
4 85.5383 6.78875 -1.35775
1 86.8257 8.13323 2.64974
4 89.6115 5.431 -2.7155
1 88.0531 9.53728 -1.3584
4 90.9693 6.78875 -1.35775
1 92.244 8.09153 2.63414
4 95.0425 5.431 -2.7155
1 93.621 9.52713 -1.42062
4 96.4002 6.78875 -1.35775
1 97.7554 8.23067 2.66704
4 100.474 5.431 -2.7155
1 99.046 9.62293 -1.38835
4 101.831 6.78875 -1.35775
1 103.073 8.12259 2.61532
4 105.904 5.431 -2.7155
1 104.415 9.50124 -1.40566
4 107.262 6.78875 -1.35775
1 108.594 8.2714 2.72902
5 0 21.724 2.63198
5 2.7155 19.0085 -2.66834
5 1.35775 23.0818 -1.41954
5 4.07325 20.3663 -1.41133
5 5.431 21.724 2.69468
5 8.1465 19.0085 2.65187
5 6.78875 23.0818 -1.37557
5 9.50425 20.3663 -1.35301
5 10.862 21.724 -2.70665
5 13.5775 19.0085 2.70071
5 12.2197 23.0818 -1.28115
5 14.9352 20.3663 -1.35625
5 16.293 21.724 -2.66331
5 19.0085 19.0085 -2.66278
5 17.6507 23.0818 -1.27732
5 20.3663 20.3663 -1.2992
5 21.724 21.724 -2.66359
5 24.4395 19.0085 -2.70287
5 23.0817 23.0818 -1.19674
5 25.7973 20.3663 -1.26974
5 27.155 21.724 -2.59502
5 29.8705 19.0085 -2.65836
5 28.5128 23.0818 -1.25159
5 31.2282 20.3663 -1.34759
5 32.586 21.724 -2.65618
5 35.3015 19.0085 2.69208
5 33.9438 23.0818 -1.36378
5 36.6593 20.3663 -1.41571
5 38.017 21.724 2.63976
5 40.7325 19.0085 2.70688
5 39.3747 23.0818 -1.47285
5 42.0902 20.3663 -1.3132
5 43.448 21.724 -2.65676
5 46.1635 19.0085 -2.63974
5 44.8058 23.0818 -1.32647
5 47.5213 20.3663 -1.28961
1 48.8945 21.4586 2.45715
1 50.9929 13.5316 -2.64115
1 49.9873 22.0315 -0.855
1 53.3456 12.7338 -2.26668
1 52.6828 18.8839 -1.5216
1 56.5905 11.4766 2.56536
1 54.3037 16.8117 -1.46485
1 57.4068 13.2949 -1.27335
1 58.6859 15.0095 2.80301
1 61.8753 11.5223 2.70508
1 60.0412 16.4725 -1.29626
1 63.0307 13.0487 -1.31508
1 64.2149 14.5428 -2.66805
1 67.3151 11.2741 -2.74702
1 65.599 15.8929 -1.22872
1 68.4973 12.8119 -1.31636
1 69.876 14.2398 2.70927
1 73.0314 11.2804 2.6761
1 71.3015 15.5926 -1.29214
1 74.3242 12.6703 -1.28594
1 75.5429 14.0528 2.74939
1 78.4872 11.1019 -2.74898
1 76.8957 15.4459 -1.25608
1 79.7651 12.4947 -1.34313
1 81.1114 13.8348 2.70521
1 83.9024 10.9451 2.70773
1 82.3739 15.2051 -1.33221
1 85.2448 12.341 -1.2902
1 86.6289 13.6577 -2.72992
1 89.5069 10.9214 2.62323
1 87.8607 14.9627 -1.26629
1 90.7903 12.2542 -1.40466
1 92.0767 13.5897 -2.74496
1 94.9405 10.9952 -2.69394
1 93.4718 14.9512 -1.32626
1 96.3154 12.4047 -1.31331
1 97.7056 13.7741 -2.68401
1 100.487 10.9398 2.72942
1 98.9776 15.1693 -1.41848
1 101.793 12.2735 -1.27094
1 103.117 13.66 -2.68877
1 105.738 10.9805 2.71241
1 104.366 15.0267 -1.28781
1 107.108 12.2943 -1.28082
1 108.38 13.8746 -2.48233
5 0 27.155 -2.68297
5 2.7155 24.4395 2.66817
5 1.35775 28.5128 -1.35284
5 4.07325 25.7973 -1.38681
5 5.431 27.155 -2.69603
5 8.1465 24.4395 -2.67038
5 6.78875 28.5128 -1.36454
5 9.50425 25.7973 -1.3325
5 10.862 27.155 -2.69503
5 13.5775 24.4395 -2.67287
5 12.2197 28.5128 -1.38315
5 14.9352 25.7973 -1.25766
5 16.293 27.155 -2.60809
5 19.0085 24.4395 -2.61029
5 17.6507 28.5128 -1.26276
5 20.3663 25.7973 -1.26122
5 21.724 27.155 -2.56915
5 24.4395 24.4395 -2.60442
5 23.0817 28.5128 -1.29124
5 25.7973 25.7973 -1.27091
5 27.155 27.155 -2.61904
5 29.8705 24.4395 -2.60565
5 28.5128 28.5128 -1.34844
5 31.2282 25.7973 -1.27871
5 32.586 27.155 -2.64748
5 35.3015 24.4395 -2.70053
5 33.9438 28.5128 -1.25023
5 36.6593 25.7973 -1.34704
5 38.017 27.155 2.67259
5 40.7325 24.4395 2.63251
5 39.3747 28.5128 -1.36259
5 42.0902 25.7973 -1.39646
5 43.448 27.155 2.68707
5 46.1635 24.4395 2.71548
5 44.8058 28.5128 -1.35067
5 47.5213 25.7973 -1.28631
1 48.8794 27.0082 2.61128
1 51.0756 22.4945 2.41373
1 50.1758 27.5473 -0.881641
1 52.1332 23.1013 -0.900863
1 53.5111 23.1827 2.46887
1 55.7247 18.5446 2.7301
1 54.917 24.1768 -1.22454
1 57.1959 20.0451 -1.35875
1 58.694 21.2974 2.62115
1 61.5036 17.7818 2.77784
1 60.1135 22.6171 -1.37052
1 62.9044 19.1162 -1.26006
1 64.1207 20.4695 2.66684
1 66.8424 17.2765 -2.65601
1 65.5462 21.7927 -1.3652
1 68.3148 18.5932 -1.30391
1 69.7427 19.9804 2.70399
1 72.6121 16.9661 2.75458
1 70.939 21.3623 -1.33048
1 73.8628 18.3785 -1.29008
1 75.3615 19.6472 -2.67632
1 78.1342 16.7225 2.6828
1 76.7733 21.0624 -1.35902
1 79.4639 18.1181 -1.3724
1 80.7996 19.4021 2.72385
1 83.7927 16.564 -2.73226
1 82.3089 20.7049 -1.28782
1 85.0491 17.8686 -1.29718
1 86.3151 19.1014 2.65815
1 89.2675 16.3344 2.74489
1 87.6683 20.4617 -1.30325
1 90.4947 17.7062 -1.21157
1 91.8806 18.9946 2.67694
1 94.6732 16.3442 -2.68135
1 93.2298 20.3964 -1.44932
1 95.9979 17.782 -1.37818
1 97.3466 19.1935 2.70058
1 100.369 16.458 -2.68956
1 98.7545 20.4836 -1.36268
1 101.603 17.8682 -1.24854
1 102.88 19.2005 -2.60004
1 105.649 16.4719 -2.6116
1 104.282 20.4691 -1.18611
1 106.938 17.7673 -1.22696
1 108.298 19.1613 -2.46906
5 0 32.586 -2.60516
5 2.7155 29.8705 -2.61144
5 1.35775 33.9438 -1.32667
5 4.07325 31.2283 -1.27164
5 5.431 32.586 -2.60767
5 8.1465 29.8705 2.70293
5 6.78875 33.9438 -1.25386
5 9.50425 31.2283 -1.3714
5 10.862 32.586 2.66431
5 13.5775 29.8705 2.68096
5 12.2197 33.9438 -1.34487
5 14.9352 31.2283 -1.40261
5 16.293 32.586 -2.70308
5 19.0085 29.8705 -2.61801
5 17.6507 33.9438 -1.35988
5 20.3663 31.2283 -1.29193
5 21.724 32.586 -2.70039
5 24.4395 29.8705 -2.65922
5 23.0817 33.9438 -1.33539
5 25.7973 31.2283 -1.31983
5 27.155 32.586 -2.6812
5 29.8705 29.8705 -2.66451
5 28.5128 33.9438 -1.28017
5 31.2282 31.2283 -1.31945
5 32.586 32.586 -2.67376
5 35.3015 29.8705 -2.61113
5 33.9438 33.9438 -1.32215
5 36.6593 31.2283 -1.33108
5 38.017 32.586 -2.71374
5 40.7325 29.8705 2.61908
5 39.3747 33.9438 -1.37859
5 42.0902 31.2283 -1.3818
5 43.448 32.586 2.67422
5 46.1635 29.8705 -2.68487
5 44.8058 33.9438 -1.30629
5 47.5213 31.2283 -1.37882
1 48.8068 32.1791 2.42588
1 51.142 27.7807 2.21748
1 49.9679 33.0211 -1.15596
1 52.3624 28.5304 -1.17455
1 53.7268 29.3421 2.52205
1 56.2419 25.2961 2.66378
1 55.018 30.3145 -1.24149
1 57.5339 26.4473 -1.17525
1 58.9191 27.6836 -2.68022
1 61.476 24.0668 2.72771
1 60.376 28.9331 -1.19322
1 62.8257 25.2523 -1.18478
1 64.3123 26.5153 -2.64708
1 66.9848 23.2078 2.74337
1 65.753 27.6745 -1.24715
1 68.3605 24.4856 -1.21768
1 69.7367 25.752 2.72838
1 72.4443 22.7286 2.58895
1 71.2135 27.1034 -1.3018
1 73.9216 23.9775 -1.35971
1 75.2869 25.3901 2.68451
1 78.0442 22.4423 -2.71956
1 76.7756 26.7265 -1.40389
1 79.4463 23.7865 -1.2362
1 80.8519 25.0149 2.72772
1 83.5989 22.1167 -2.63654
1 82.2685 26.3651 -1.37518
1 84.9656 23.4888 -1.34087
1 86.4079 24.8359 2.66572
1 89.034 21.8342 2.78214
1 87.838 26.108 -1.28958
1 90.4072 23.1656 -1.27666
1 91.8521 24.4747 -2.68466
1 94.5503 21.7754 2.65296
1 93.1722 25.8538 -1.38033
1 96.0268 23.1019 -1.44197
1 97.3664 24.516 2.72535
1 100.146 21.8417 -2.6717
1 98.7975 25.8393 -1.25953
1 101.431 23.1444 -1.30003
1 102.803 24.5171 -2.6402
1 105.526 21.7475 -2.56983
1 104.216 25.8192 -1.31556
1 106.877 23.187 -1.17912
1 108.305 24.3963 -2.65965
5 0 38.017 -2.61255
5 2.7155 35.3015 -2.65371
5 1.35775 39.3748 -1.27513
5 4.07325 36.6593 -1.30261
5 5.431 38.017 -2.64002
5 8.1465 35.3015 -2.59984
5 6.78875 39.3748 -1.3368
5 9.50425 36.6593 -1.27458
5 10.862 38.017 -2.67215
5 13.5775 35.3015 -2.69727
5 12.2197 39.3748 -1.34555
5 14.9352 36.6593 -1.32603
5 16.293 38.017 -2.69421
5 19.0085 35.3015 -2.66204
5 17.6507 39.3748 -1.3507
5 20.3663 36.6593 -1.34382
5 21.724 38.017 -2.62154
5 24.4395 35.3015 -2.65716
5 23.0817 39.3748 -1.2423
5 25.7973 36.6593 -1.32218
5 27.155 38.017 -2.65781
5 29.8705 35.3015 -2.61485
5 28.5128 39.3748 -1.29348
5 31.2282 36.6593 -1.28748
5 32.586 38.017 2.67894
5 35.3015 35.3015 2.69709
5 33.9438 39.3748 -1.35029
5 36.6593 36.6593 -1.40766
5 38.017 38.017 -2.6921
5 40.7325 35.3015 -2.68114
5 39.3747 39.3748 -1.34217
5 42.0902 36.6593 -1.32669
5 43.448 38.017 -2.70833
5 46.1635 35.3015 -2.69833
5 44.8058 39.3748 -1.35261
5 47.5213 36.6593 -1.25627
1 48.9138 37.5514 2.5264
1 51.4137 33.616 2.40506
1 50.3232 38.4441 -1.3051
1 52.6843 34.5371 -1.24112
1 54.0118 35.4775 2.44349
1 56.4092 31.4568 2.66088
1 55.4013 36.5282 -1.45499
1 57.8498 32.5867 -1.32578
1 59.2966 33.7554 -2.78371
1 61.8705 30.1281 -2.80849
1 60.7592 34.8001 -1.26341
1 63.2437 31.1934 -1.28462
1 64.7084 32.4331 2.73106
1 67.2903 28.991 -2.62985
1 66.1378 33.6524 -1.30109
1 68.6278 30.4634 -1.32103
1 69.929 31.6716 2.66219
1 72.579 28.4581 2.69821
1 71.4824 32.8535 -1.40049
1 74.0422 29.7846 -1.38021
1 75.4667 30.9238 2.5925
1 78.1931 27.9359 2.52872
1 76.8668 32.2318 -1.4206
1 79.5066 29.1794 -1.48117
1 80.8944 30.6101 2.64463
1 83.6771 27.679 2.68382
1 82.3152 31.854 -1.39692
1 85.0571 29.0123 -1.38224
1 86.5153 30.3243 -2.76669
1 89.251 27.4309 2.76883
1 87.8774 31.5894 -1.37335
1 90.5398 28.7264 -1.21895
1 91.9565 29.9965 -2.5898
1 94.5885 27.1777 -2.75424
1 93.336 31.3872 -1.28272
1 95.9589 28.5056 -1.35198
1 97.3373 29.9887 -2.62341
1 100.095 27.2666 -2.66064
1 98.7714 31.3042 -1.26927
1 101.51 28.5426 -1.22934
1 102.893 29.7894 -2.60737
1 105.643 27.0963 -2.63213
1 104.402 31.0485 -1.2879
1 107.022 28.4025 -1.30065
1 108.331 29.6878 -2.69333
5 0 43.448 -2.63206
5 2.7155 40.7325 -2.62245
5 1.35775 44.8058 -1.23887
5 4.07325 42.0903 -1.37622
5 5.431 43.448 -2.70393
5 8.1465 40.7325 -2.64732
5 6.78875 44.8058 -1.31106
5 9.50425 42.0903 -1.31103
5 10.862 43.448 -2.71065
5 13.5775 40.7325 -2.69663
5 12.2197 44.8058 -1.33369
5 14.9352 42.0903 -1.42543
5 16.293 43.448 2.65473
5 19.0085 40.7325 -2.70883
5 17.6507 44.8058 -1.40294
5 20.3663 42.0903 -1.3188
5 21.724 43.448 -2.67508
5 24.4395 40.7325 -2.635
5 23.0817 44.8058 -1.29482
5 25.7973 42.0903 -1.25273
5 27.155 43.448 -2.64535
5 29.8705 40.7325 -2.66406
5 28.5128 44.8058 -1.30055
5 31.2282 42.0903 -1.34962
5 32.586 43.448 -2.65732
5 35.3015 40.7325 2.68513
5 33.9438 44.8058 -1.29404
5 36.6593 42.0903 -1.30892
5 38.017 43.448 -2.65154
5 40.7325 40.7325 2.71404
5 39.3747 44.8058 -1.32387
5 42.0902 42.0903 -1.3825
5 43.448 43.448 2.69512
5 46.1635 40.7325 -2.68039
5 44.8058 44.8058 -1.31034
5 47.5213 42.0903 -1.29656
1 48.8476 43.0813 2.51093
1 51.6225 39.2644 2.38903
1 50.1322 44.0315 -1.30511
1 52.8874 40.2421 -1.35081
1 54.2547 41.2581 2.5975
1 56.8844 37.6965 2.55539
1 55.6341 42.2407 -1.28419
1 58.208 38.5662 -1.21192
1 59.5422 39.6821 2.68443
1 62.0978 36.0806 -2.71073
1 61.0255 40.7583 -1.33475
1 63.526 37.1573 -1.20299
1 64.8873 38.2402 2.64327
1 67.5665 34.9497 2.74595
1 66.3932 39.4976 -1.37886
1 69.0288 36.2189 -1.36395
1 70.4016 37.3473 2.58461
1 72.8715 34.0877 2.63884
1 71.8991 38.6173 -1.53432
1 74.4157 35.2709 -1.40261
1 75.858 36.5429 2.63222
1 78.37 33.5052 2.61811
1 77.2735 37.7942 -1.42238
1 79.7811 34.8365 -1.3475
1 81.1712 36.1073 2.6582
1 83.7141 33.2135 2.5682
1 82.569 37.4029 -1.45313
1 85.2256 34.4578 -1.4762
1 86.5967 35.8245 2.54748
1 89.2193 32.8756 2.64066
1 87.9271 37.0883 -1.36526
1 90.599 34.1629 -1.3378
1 91.9159 35.5207 -2.58596
1 94.781 32.7871 -2.58332
1 93.4546 36.7864 -1.24405
1 96.1586 34.1123 -1.19713
1 97.5419 35.4243 -2.57064
1 100.136 32.6223 -2.6843
1 99.0674 36.7225 -1.13549
1 101.58 33.8951 -1.24716
1 103.061 35.1897 -2.60332
1 105.729 32.4215 -2.59825
1 104.38 36.4697 -1.29442
1 107.068 33.7797 -1.23573
1 108.489 34.9564 2.74956
5 0 48.879 -2.7087
5 2.7155 46.1635 -2.66017
5 1.35775 50.2368 -1.34666
5 4.07325 47.5213 -1.33436
5 5.431 48.879 -2.70139
5 8.1465 46.1635 2.67524
5 6.78875 50.2368 -1.38754
5 9.50425 47.5213 -1.33276
5 10.862 48.879 2.70549
5 13.5775 46.1635 2.70846
5 12.2197 50.2368 -1.36249
5 14.9352 47.5213 -1.42273
5 16.293 48.879 2.63609
5 19.0085 46.1635 2.69188
5 17.6507 50.2368 -1.39416
5 20.3663 47.5213 -1.36012
5 21.724 48.879 -2.64803
5 24.4395 46.1635 -2.61737
5 23.0817 50.2368 -1.29583
5 25.7973 47.5213 -1.29132
5 27.155 48.879 -2.6977
5 29.8705 46.1635 -2.6352
5 28.5128 50.2368 -1.33573
5 31.2282 47.5213 -1.2468
5 32.586 48.879 2.70267
5 35.3015 46.1635 -2.67157
5 33.9438 50.2368 -1.43523
5 36.6593 47.5213 -1.34332
5 38.017 48.879 -2.70054
5 40.7325 46.1635 -2.63009
5 39.3747 50.2368 -1.3665
5 42.0902 47.5213 -1.31323
5 43.448 48.879 -2.69775
5 46.1635 46.1635 -2.69548
5 44.8058 50.2368 -1.38377
5 47.5213 47.5213 -1.43507
1 48.941 48.6365 2.50704
1 51.4887 45.0174 2.61982
1 50.2871 49.6272 -1.2721
1 52.9504 45.9855 -1.209
1 54.4161 46.8996 2.63889
1 57.0673 43.3106 2.66171
1 55.925 47.8773 -1.3736
1 58.4506 44.4065 -1.25153
1 59.8568 45.3689 2.5675
1 62.4613 41.8146 2.53953
1 61.4292 46.445 -1.38009
1 63.8806 42.8535 -1.35625
1 65.2672 44.0246 2.62242
1 67.8125 40.6646 2.5768
1 66.6813 45.2121 -1.31644
1 69.2004 41.9016 -1.42629
1 70.7788 42.9875 2.72347
1 73.3158 39.7665 2.47769
1 72.1629 44.2749 -1.34152
1 74.673 40.9916 -1.52396
1 76.1438 42.337 2.56474
1 78.7087 39.1737 2.64812
1 77.5995 43.5449 -1.46128
1 80.0884 40.4276 -1.37904
1 81.5344 41.6591 2.55959
1 84.0538 38.7284 2.60628
1 83.0065 42.9837 -1.478
1 85.4627 39.9957 -1.45737
1 86.9109 41.315 -2.81341
1 89.3962 38.4005 -2.6998
1 88.3102 42.7241 -1.39707
1 90.8191 39.7144 -1.37491
1 92.2514 40.9585 2.67241
1 94.8407 38.075 -2.56987
1 93.6321 42.2453 -1.38514
1 96.257 39.4486 -1.29417
1 97.7215 40.8286 -2.55286
1 100.403 37.9806 -2.60002
1 99.1292 42.0658 -1.19297
1 101.799 39.2973 -1.21581
1 103.166 40.5902 -2.57913
1 105.676 37.6809 -2.73492
1 104.601 41.8815 -1.2453
1 107.076 38.9936 -1.28074
1 108.562 40.2678 -2.63478
5 0 54.31 2.69626
5 2.7155 51.5945 2.70377
5 1.35775 55.6678 -1.43462
5 4.07325 52.9523 -1.3614
5 5.431 54.31 2.66903
5 8.1465 51.5945 2.69325
5 6.78875 55.6678 -1.42813
5 9.50425 52.9523 -1.39917
5 10.862 54.31 -2.69138
5 13.5775 51.5945 2.6786
5 12.2197 55.6678 -1.32651
5 14.9352 52.9523 -1.41305
5 16.293 54.31 2.68531
5 19.0085 51.5945 2.6318
5 17.6507 55.6678 -1.37599
5 20.3663 52.9523 -1.34193
5 21.724 54.31 -2.70744
5 24.4395 51.5945 -2.69157
5 23.0817 55.6678 -1.42461
5 25.7973 52.9523 -1.32762
5 27.155 54.31 -2.69109
5 29.8705 51.5945 2.68948
5 28.5128 55.6678 -1.34445
5 31.2282 52.9523 -1.39488
5 32.586 54.31 2.62298
5 35.3015 51.5945 2.67038
5 33.9438 55.6678 -1.44312
5 36.6593 52.9523 -1.34959
5 38.017 54.31 2.65295
5 40.7325 51.5945 2.67151
5 39.3747 55.6678 -1.39945
5 42.0902 52.9523 -1.42137
5 43.448 54.31 2.64212
5 46.1635 51.5945 2.68335
5 44.8058 55.6678 -1.39413
5 47.5213 52.9523 -1.3556
1 48.9626 54.0853 2.6433
1 51.9163 50.5856 2.67066
1 50.502 55.115 -1.32629
1 53.339 51.4726 -1.18676
1 54.8483 52.4558 2.70335
1 57.4632 48.8557 2.58936
1 56.332 53.3948 -1.30272
1 58.9653 49.8615 -1.34451
1 60.4185 50.8555 2.56726
1 62.7828 47.4973 2.52212
1 61.9757 51.9029 -1.39237
1 64.2631 48.6109 -1.35566
1 65.788 49.72 2.66799
1 68.2548 46.3919 2.66653
1 67.3031 50.7223 -1.22908
1 69.7738 47.3952 -1.23752
1 71.324 48.4801 -2.63661
1 73.694 45.4247 2.68165
1 72.7587 49.7451 -1.30451
1 75.2202 46.6302 -1.38961
1 76.7241 47.8793 -2.70013
1 79.0115 44.7225 2.58689
1 78.1351 49.1343 -1.35435
1 80.427 46.0762 -1.49362
1 81.8636 47.3479 2.60978
1 84.3567 44.3162 2.55289
1 83.3494 48.5475 -1.42522
1 85.7302 45.5157 -1.41761
1 87.2645 46.8432 -2.6972
1 89.8021 43.9701 2.67863
1 88.7031 48.013 -1.34972
1 91.2024 45.2517 -1.37609
1 92.6797 46.5295 2.7251
1 95.1327 43.5768 -2.6179
1 94.0457 47.7887 -1.30852
1 96.5721 44.9017 -1.31105
1 97.9567 46.2455 -2.59379
1 100.557 43.4001 -2.53688
1 99.3861 47.411 -1.15126
1 101.958 44.647 -1.16005
1 103.319 46.0091 -2.53568
1 105.996 43.1292 -2.70126
1 104.768 47.1788 -1.08081
1 107.456 44.432 -1.29214
1 108.933 45.7551 -2.63402
5 0 59.741 2.57754
5 2.7155 57.0255 2.64053
5 1.35775 61.0988 -1.64768
5 4.07325 58.3833 -1.50163
5 5.431 59.741 2.56851
5 8.1465 57.0255 2.62507
5 6.78875 61.0988 -1.42812
5 9.50425 58.3833 -1.37979
5 10.862 59.741 -2.69272
5 13.5775 57.0255 -2.66952
5 12.2197 61.0988 -1.39708
5 14.9352 58.3833 -1.43616
5 16.293 59.741 -2.69633
5 19.0085 57.0255 2.68719
5 17.6507 61.0988 -1.33896
5 20.3663 58.3833 -1.34394
5 21.724 59.741 -2.69455
5 24.4395 57.0255 2.68998
5 23.0817 61.0988 -1.26596
5 25.7973 58.3833 -1.39947
5 27.155 59.741 2.63398
5 29.8705 57.0255 2.63662
5 28.5128 61.0988 -1.50085
5 31.2282 58.3833 -1.47108
5 32.586 59.741 2.6301
5 35.3015 57.0255 2.61251
5 33.9438 61.0988 -1.50733
5 36.6593 58.3833 -1.47034
5 38.017 59.741 2.59325
5 40.7325 57.0255 2.62687
5 39.3747 61.0988 -1.5399
5 42.0902 58.3833 -1.42688
5 43.448 59.741 2.68125
5 46.1635 57.0255 -2.71417
5 44.8058 61.0988 -1.3795
5 47.5213 58.3833 -1.3201
1 49.0789 59.3446 2.61092
1 52.0989 56.0381 -2.74641
1 50.944 60.0635 -1.37001
1 53.7859 56.8498 -1.2391
1 55.5442 57.68 -2.69082
1 57.9146 54.3637 2.67428
1 57.2181 58.6656 -1.33898
1 59.5271 55.3114 -1.37291
1 61.1275 56.3813 2.63426
1 63.4766 53.0172 2.67732
1 62.7139 57.4445 -1.25346
1 64.9164 54.2005 -1.31691
1 66.5939 55.1949 -2.5482
1 68.7881 51.8108 -2.65558
1 68.1834 56.1869 -1.13934
1 70.3448 52.9091 -1.20258
1 71.8709 54.0566 -2.51575
1 74.2397 50.9754 -2.67821
1 73.3949 55.2346 -1.17197
1 75.6504 52.0739 -1.2595
1 77.1188 53.2736 -2.60362
1 79.4966 50.3764 2.65453
1 78.5537 54.5176 -1.25263
1 80.9393 51.6282 -1.38575
1 82.3982 52.8113 2.6559
1 84.9084 49.7679 2.61663
1 83.8155 53.9901 -1.37611
1 86.2751 51.0128 -1.26998
1 87.7471 52.2922 -2.54596
1 90.1455 49.3822 -2.59445
1 89.1353 53.599 -1.19507
1 91.609 50.6981 -1.32938
1 92.8888 52.0735 -2.71659
1 95.4306 49.1209 2.74658
1 94.3324 53.3335 -1.33997
1 96.9184 50.2965 -1.3081
1 98.3522 51.6939 -2.60423
1 100.825 48.7725 -2.51022
1 99.7013 52.8931 -1.24963
1 102.255 50.0152 -1.14272
1 103.543 51.3045 -2.56749
1 106.152 48.51 -2.37635
1 104.91 52.6872 -1.13955
1 107.557 49.8125 -1.11236
1 108.974 51.0898 -2.39573
5 2.7155 62.4565 2.54749
5 8.1465 62.4565 2.64951
5 13.5775 62.4565 -2.68338
5 19.0085 62.4565 -2.68381
5 24.4395 62.4565 -2.67579
5 29.8705 62.4565 2.66759
5 35.3015 62.4565 2.59217
5 40.7325 62.4565 2.5164
5 46.1635 62.4565 2.66036
1 52.8093 60.8256 -2.63639
1 58.8197 59.6859 2.63253
1 64.4985 58.3668 -2.49086
1 69.7585 57.1972 -2.41991
1 75.1125 56.3119 -2.29414
1 80.0869 55.7984 -2.53649
1 85.2759 55.1936 -2.6815
1 90.4262 54.7952 2.69341
1 95.6449 54.665 -2.70888
1 101.058 54.1806 -2.64766
1 106.515 53.9758 -2.3658
5 0 8.1465 0
5 2.7155 10.862 0
5 1.35775 9.50425 1.35775
5 4.07325 12.2197 1.35775
5 5.431 8.1465 0
5 8.1465 10.862 0
5 6.78875 9.50425 1.35775
5 9.50425 12.2197 1.35775
5 10.862 8.1465 0
5 13.5775 10.862 0
5 12.2197 9.50425 1.35775
5 14.9352 12.2197 1.35775
5 16.293 8.1465 0
5 19.0085 10.862 0
5 17.6507 9.50425 1.35775
5 20.3663 12.2197 1.35775
5 21.724 8.1465 0
5 24.4395 10.862 0
5 23.0817 9.50425 1.35775
5 25.7973 12.2197 1.35775
5 27.155 8.1465 0
5 29.8705 10.862 0
5 28.5128 9.50425 1.35775
5 31.2282 12.2197 1.35775
5 32.586 8.1465 0
5 35.3015 10.862 0
5 33.9438 9.50425 1.35775
5 36.6593 12.2197 1.35775
5 38.017 8.1465 0
5 40.7325 10.862 0
5 39.3747 9.50425 1.35775
5 42.0902 12.2197 1.35775
5 43.448 8.1465 0
5 46.1635 10.862 0
5 44.8058 9.50425 1.35775
5 47.5213 12.2197 1.35775
4 48.879 0 0
4 51.5945 2.7155 0
4 50.2368 1.35775 1.35775
4 52.9522 4.07325 1.35775
4 54.31 0 0
4 57.0255 2.7155 0
4 55.6677 1.35775 1.35775
4 58.3833 4.07325 1.35775
4 59.741 0 0
4 62.4565 2.7155 0
4 61.0988 1.35775 1.35775
4 63.8143 4.07325 1.35775
4 65.172 0 0
4 67.8875 2.7155 0
4 66.5298 1.35775 1.35775
4 69.2452 4.07325 1.35775
4 70.603 0 0
4 73.3185 2.7155 0
4 71.9608 1.35775 1.35775
4 74.6762 4.07325 1.35775
4 76.034 0 0
4 78.7495 2.7155 0
4 77.3918 1.35775 1.35775
4 80.1073 4.07325 1.35775
4 81.465 0 0
4 84.1805 2.7155 0
4 82.8227 1.35775 1.35775
4 85.5383 4.07325 1.35775
4 86.896 0 0
4 89.6115 2.7155 0
4 88.2537 1.35775 1.35775
4 90.9693 4.07325 1.35775
4 92.327 0 0
4 95.0425 2.7155 0
4 93.6847 1.35775 1.35775
4 96.4002 4.07325 1.35775
4 97.758 0 0
4 100.474 2.7155 0
4 99.1158 1.35775 1.35775
4 101.831 4.07325 1.35775
4 103.189 0 0
4 105.904 2.7155 0
4 104.547 1.35775 1.35775
4 107.262 4.07325 1.35775
4 108.62 0 0
5 0 13.5775 0
5 2.7155 16.293 -0.030378
5 1.35775 14.9352 1.35775
5 4.07325 17.6508 1.31966
5 5.431 13.5775 0
5 8.1465 16.293 -0.00207584
5 6.78875 14.9352 1.35775
5 9.50425 17.6508 1.35242
5 10.862 13.5775 0
5 13.5775 16.293 -0.00491819
5 12.2197 14.9352 1.35775
5 14.9352 17.6508 1.31869
5 16.293 13.5775 0
5 19.0085 16.293 0.00290528
5 17.6507 14.9352 1.35775
5 20.3663 17.6508 1.35757
5 21.724 13.5775 0
5 24.4395 16.293 0.003671
5 23.0817 14.9352 1.35775
5 25.7973 17.6508 1.35541
5 27.155 13.5775 0
5 29.8705 16.293 0.0272404
5 28.5128 14.9352 1.35775
5 31.2282 17.6508 1.35189
5 32.586 13.5775 0
5 35.3015 16.293 0.00908262
5 33.9438 14.9352 1.35775
5 36.6593 17.6508 1.3219
5 38.017 13.5775 0
5 40.7325 16.293 0.0378749
5 39.3747 14.9352 1.35775
5 42.0902 17.6508 1.41817
5 43.448 13.5775 0
5 46.1635 16.293 0.0287579
5 44.8058 14.9352 1.35775
5 47.5213 17.6508 1.47408
4 48.879 5.431 0
1 51.6023 8.25109 -0.0200318
4 50.2368 6.78875 1.35775
1 52.823 9.83117 1.1655
4 54.31 5.431 0
1 57.0121 8.25909 -0.0192139
4 55.6677 6.78875 1.35775
1 58.2628 9.93141 1.37991
4 59.741 5.431 0
1 62.3359 8.31425 -0.076608
4 61.0988 6.78875 1.35775
1 63.4432 9.82469 1.4385
4 65.172 5.431 0
1 67.7509 8.35334 -0.115727
4 66.5298 6.78875 1.35775
1 68.8721 9.90881 1.29364
4 70.603 5.431 0
1 73.1838 8.29429 -0.0695192
4 71.9608 6.78875 1.35775
1 74.4533 9.76988 1.38826
4 76.034 5.431 0
1 78.6893 8.24809 -0.0171111
4 77.3918 6.78875 1.35775
1 79.8765 9.52625 1.40153
4 81.465 5.431 0
1 84.0786 8.13425 -0.0705367
4 82.8227 6.78875 1.35775
1 85.338 9.50928 1.32501
4 86.896 5.431 0
1 89.574 8.13983 -0.0823002
4 88.2537 6.78875 1.35775
1 90.9047 9.51098 1.24302
4 92.327 5.431 0
1 94.9989 8.19089 -0.0499662
4 93.6847 6.78875 1.35775
1 96.312 9.63109 1.37932
4 97.758 5.431 0
1 100.388 8.17956 -0.0416415
4 99.1158 6.78875 1.35775
1 101.733 9.51838 1.31965
4 103.189 5.431 0
1 105.856 8.17858 -0.0351663
4 104.547 6.78875 1.35775
1 107.167 9.5769 1.38182
4 108.62 5.431 0
5 0 19.0085 -0.0123317
5 2.7155 21.724 -0.0900773
5 1.35775 20.3663 1.31363
5 4.07325 23.0818 1.31552
5 5.431 19.0085 -0.028277
5 8.1465 21.724 0.0736872
5 6.78875 20.3663 1.35572
5 9.50425 23.0818 1.42897
5 10.862 19.0085 -0.00815739
5 13.5775 21.724 -0.00889917
5 12.2197 20.3663 1.39536
5 14.9352 23.0818 1.38529
5 16.293 19.0085 0.0549538
5 19.0085 21.724 0.0554889
5 17.6507 20.3663 1.37918
5 20.3663 23.0818 1.42657
5 21.724 19.0085 0.0208951
5 24.4395 21.724 0.114043
5 23.0817 20.3663 1.44745
5 25.7973 23.0818 1.4422
5 27.155 19.0085 0.0476033
5 29.8705 21.724 0.0464293
5 28.5128 20.3663 1.43601
5 31.2282 23.0818 1.44514
5 32.586 19.0085 0.00606015
5 35.3015 21.724 -0.0125542
5 33.9438 20.3663 1.32988
5 36.6593 23.0818 1.30038
5 38.017 19.0085 -0.0451612
5 40.7325 21.724 -0.0331181
5 39.3747 20.3663 1.29728
5 42.0902 23.0818 1.31001
5 43.448 19.0085 0.0909414
5 46.1635 21.724 0.049535
5 44.8058 20.3663 1.44404
5 47.5213 23.0818 1.35682
1 48.4062 18.2168 -0.824966
1 50.435 19.5796 -0.475485
1 49.5749 19.2659 1.71139
1 51.842 20.0207 1.80006
1 54.1567 11.2654 -0.33108
1 55.706 14.9468 0.017619
1 54.9237 12.8298 1.41593
1 57.0679 16.7437 1.49105
1 59.1547 11.6938 -0.0802799
1 61.5489 14.7472 0.0272943
1 60.2465 13.2613 1.4705
1 62.819 16.2342 1.48249
1 64.5713 11.3786 -0.0161438
1 67.0438 14.222 0.0188547
1 65.7158 12.8513 1.53458
1 68.298 15.7901 1.43525
1 70.2177 11.3979 -0.0600749
1 72.8108 14.1763 0.0341572
1 71.5301 12.8109 1.40935
1 74.05 15.5779 1.38288
1 75.771 11.219 0.0383546
1 78.357 13.9341 -0.0552747
1 77.0541 12.5992 1.43617
1 79.6687 15.295 1.36027
1 81.1878 11.0163 0.0144822
1 83.8264 13.8146 -0.0441084
1 82.4709 12.4668 1.3779
1 85.2403 15.0338 1.40172
1 86.6592 10.8962 -0.00863738
1 89.3332 13.5579 -0.116916
1 88.0134 12.2773 1.41061
1 90.7016 14.8978 1.35284
1 92.2246 10.9152 -0.0991957
1 94.9069 13.7031 0.0336678
1 93.5094 12.223 1.32611
1 96.199 15.1114 1.43701
1 97.6628 11.0698 0.0424513
1 100.336 13.6732 -0.0399853
1 99.0967 12.3186 1.45593
1 101.688 15.0268 1.36353
1 103.064 10.9191 0.0875804
1 105.756 13.6802 0.0803755
1 104.431 12.299 1.38889
1 107.005 15.091 1.41728
1 108.497 10.8829 -0.00555873
5 0 24.4395 -0.0173586
5 2.7155 27.155 -0.0570092
5 1.35775 25.7973 1.35192
5 4.07325 28.5128 1.36604
5 5.431 24.4395 -0.0322161
5 8.1465 27.155 -0.0570884
5 6.78875 25.7973 1.33234
5 9.50425 28.5128 1.3112
5 10.862 24.4395 0.0309824
5 13.5775 27.155 0.0204994
5 12.2197 25.7973 1.40551
5 14.9352 28.5128 1.37085
5 16.293 24.4395 0.0443708
5 19.0085 27.155 0.0781517
5 17.6507 25.7973 1.44641
5 20.3663 28.5128 1.49943
5 21.724 24.4395 0.0729903
5 24.4395 27.155 0.0643199
5 23.0817 25.7973 1.44338
5 25.7973 28.5128 1.43578
5 27.155 24.4395 0.113391
5 29.8705 27.155 0.0910919
5 28.5128 25.7973 1.44486
5 31.2282 28.5128 1.41612
5 32.586 24.4395 0.0942093
5 35.3015 27.155 0.134152
5 33.9438 25.7973 1.47964
5 36.6593 28.5128 1.48442
5 38.017 24.4395 -0.0915324
5 40.7325 27.155 -0.0843803
5 39.3747 25.7973 1.28708
5 42.0902 28.5128 1.31284
5 43.448 24.4395 -0.0153745
5 46.1635 27.155 -0.00254269
5 44.8058 25.7973 1.36298
5 47.5213 28.5128 1.37264
1 48.9839 24.228 -0.120678
1 51.2457 25.361 -0.290069
1 50.0197 24.8873 1.93568
1 52.4365 25.634 1.80416
1 53.1947 21.009 -0.302621
1 56.0697 22.032 -0.089461
1 54.7865 20.864 1.80601
1 57.3762 23.3271 1.45667
1 58.4097 18.1276 0.0566854
1 61.3819 20.8958 0.0327966
1 59.9644 19.4481 1.47024
1 62.7489 22.1963 1.47462
1 64.1682 17.4849 0.0146218
1 66.9032 20.2132 0.000147377
1 65.5095 18.8473 1.45631
1 68.2199 21.5365 1.39588
1 69.7554 17.0927 -0.0295021
1 72.4361 19.8243 -0.0444559
1 71.0832 18.4246 1.42009
1 73.8556 21.1928 1.24674
1 75.3106 16.8885 -0.0984866
1 78.0849 19.554 -0.039343
1 76.7403 18.2313 1.42736
1 79.4765 20.9565 1.4341
1 80.9736 16.6827 -0.0736531
1 83.6936 19.247 0.0125029
1 82.3643 17.9823 1.38996
1 84.9419 20.682 1.38408
1 86.507 16.471 0.0113657
1 89.0555 19.0603 0.0343529
1 87.7744 17.7491 1.49644
1 90.5126 20.3532 1.35928
1 92.0166 16.3013 -0.0555292
1 94.5791 19.0594 -0.0575945
1 93.2969 17.647 1.38828
1 95.936 20.427 1.28723
1 97.4599 16.4107 -0.0382577
1 100.194 19.1557 0.0577483
1 98.8374 17.682 1.38927
1 101.506 20.5175 1.4095
1 102.986 16.4017 0.0357569
1 105.686 19.1289 0.212843
1 104.259 17.8171 1.49628
1 106.976 20.501 1.63555
1 108.328 16.4284 0.0598147
5 0 29.8705 0.0148145
5 2.7155 32.586 0.104191
5 1.35775 31.2283 1.42655
5 4.07325 33.9438 1.46704
5 5.431 29.8705 0.0198245
5 8.1465 32.586 0.0958405
5 6.78875 31.2283 1.4123
5 9.50425 33.9438 1.37623
5 10.862 29.8705 -0.0333202
5 13.5775 32.586 -0.0406121
5 12.2197 31.2283 1.33511
5 14.9352 33.9438 1.4391
5 16.293 29.8705 0.0241251