1661
 Atoms. Timestep: 30000
5 0 19.0085 -2.7155
5 2.7155 16.293 -2.7155
5 1.35775 20.3663 -1.35775
5 4.07325 17.6507 -1.35775
5 5.431 19.0085 -2.7155
5 8.1465 16.293 -2.7155
5 6.78875 20.3663 -1.35775
5 9.50425 17.6507 -1.35775
5 10.862 19.0085 -2.7155
5 13.5775 16.293 -2.7155
5 12.2197 20.3663 -1.35775
5 14.9352 17.6507 -1.35775
5 16.293 19.0085 -2.7155
5 19.0085 16.293 -2.7155
5 17.6507 20.3663 -1.35775
5 20.3663 17.6507 -1.35775
5 21.724 19.0085 -2.7155
5 24.4395 16.293 -2.7155
5 23.0817 20.3663 -1.35775
5 25.7973 17.6507 -1.35775
5 27.155 19.0085 -2.7155
5 29.8705 16.293 -2.7155
5 28.5128 20.3663 -1.35775
5 31.2282 17.6507 -1.35775
5 32.586 19.0085 -2.7155
5 35.3015 16.293 -2.7155
5 33.9438 20.3663 -1.35775
5 36.6593 17.6507 -1.35775
5 38.017 19.0085 -2.7155
5 40.7325 16.293 -2.7155
5 39.3747 20.3663 -1.35775
5 42.0902 17.6507 -1.35775
5 43.448 19.0085 -2.7155
5 46.1635 16.293 -2.7155
5 44.8058 20.3663 -1.35775
5 47.5213 17.6507 -1.35775
4 48.879 2.7155 -2.7155
4 51.5945 0 -2.7155
4 50.2368 4.07325 -1.35775
4 52.9522 1.35775 -1.35775
4 54.31 2.7155 -2.7155
4 57.0255 0 -2.7155
4 55.6677 4.07325 -1.35775
4 58.3833 1.35775 -1.35775
4 59.741 2.7155 -2.7155
4 62.4565 0 -2.7155
4 61.0988 4.07325 -1.35775
4 63.8143 1.35775 -1.35775
4 65.172 2.7155 -2.7155
4 67.8875 0 -2.7155
4 66.5298 4.07325 -1.35775
4 69.2452 1.35775 -1.35775
4 70.603 2.7155 -2.7155
4 73.3185 0 -2.7155
4 71.9608 4.07325 -1.35775
4 74.6762 1.35775 -1.35775
4 76.034 2.7155 -2.7155
4 78.7495 0 -2.7155
4 77.3918 4.07325 -1.35775
4 80.1073 1.35775 -1.35775
4 81.465 2.7155 -2.7155
4 84.1805 0 -2.7155
4 82.8227 4.07325 -1.35775
4 85.5383 1.35775 -1.35775
4 86.896 2.7155 -2.7155
4 89.6115 0 -2.7155
4 88.2537 4.07325 -1.35775
4 90.9693 1.35775 -1.35775
4 92.327 2.7155 -2.7155
4 95.0425 0 -2.7155
4 93.6847 4.07325 -1.35775
4 96.4002 1.35775 -1.35775
4 97.758 2.7155 -2.7155
4 100.474 0 -2.7155
4 99.1158 4.07325 -1.35775
4 101.831 1.35775 -1.35775
4 103.189 2.7155 -2.7155
4 105.904 0 -2.7155
4 104.547 4.07325 -1.35775
4 107.262 1.35775 -1.35775
4 108.62 2.7155 -2.7155
5 0 24.4395 -2.71543
5 2.7155 21.724 -2.7155
5 1.35775 25.7973 -1.43774
5 4.07325 23.0818 -1.35775
5 5.431 24.4395 2.70864
5 8.1465 21.724 -2.7155
5 6.78875 25.7973 -1.38696
5 9.50425 23.0818 -1.35775
5 10.862 24.4395 2.70796
5 13.5775 21.724 -2.7155
5 12.2197 25.7973 -1.34508
5 14.9352 23.0818 -1.35775
5 16.293 24.4395 2.71168
5 19.0085 21.724 -2.7155
5 17.6507 25.7973 -1.3281
5 20.3663 23.0818 -1.35775
5 21.724 24.4395 -2.69657
5 24.4395 21.724 -2.7155
5 23.0817 25.7973 -1.30956
5 25.7973 23.0818 -1.35775
5 27.155 24.4395 2.69053
5 29.8705 21.724 -2.7155
5 28.5128 25.7973 -1.30363
5 31.2282 23.0818 -1.35775
5 32.586 24.4395 -2.70278
5 35.3015 21.724 -2.7155
5 33.9438 25.7973 -1.39425
5 36.6593 23.0818 -1.35775
5 38.017 24.4395 2.70511
5 40.7325 21.724 -2.7155
5 39.3747 25.7973 -1.34844
5 42.0902 23.0818 -1.35775
5 43.448 24.4395 2.71351
5 46.1635 21.724 -2.7155
5 44.8058 25.7973 -1.28321
5 47.5213 23.0818 -1.35775
1 49.1272 24.7786 -2.09249
4 51.5945 5.431 -2.7155
1 52.1452 11.03 -2.61031
4 52.9522 6.78875 -1.35775
1 54.1969 8.10339 2.59454
4 57.0255 5.431 -2.7155
1 55.4835 9.48 -1.51465
4 58.3833 6.78875 -1.35775
1 59.7385 8.21233 -2.6624
4 62.4565 5.431 -2.7155
1 60.8874 9.67216 -1.2146
4 63.8143 6.78875 -1.35775
1 65.048 8.21708 2.67485
4 67.8875 5.431 -2.7155
1 66.1949 9.66317 -1.21756
4 69.2452 6.78875 -1.35775
1 70.4332 8.31691 2.68819
4 73.3185 5.431 -2.7155
1 71.7015 9.71059 -1.25615
4 74.6762 6.78875 -1.35775
1 75.9283 8.18697 2.68972
4 78.7495 5.431 -2.7155
1 77.1774 9.62246 -1.32846
4 80.1073 6.78875 -1.35775
1 81.4027 8.17238 2.61722
4 84.1805 5.431 -2.7155
1 82.6826 9.48539 -1.37051
4 85.5383 6.78875 -1.35775
1 86.913 8.2228 -2.67669
4 89.6115 5.431 -2.7155
1 88.0882 9.60727 -1.18499
4 90.9693 6.78875 -1.35775
1 92.266 8.15807 2.6919
4 95.0425 5.431 -2.7155
1 93.612 9.53813 -1.36916
4 96.4002 6.78875 -1.35775
1 97.7724 8.16523 -2.67511
4 100.474 5.431 -2.7155
1 99.0515 9.57645 -1.23845
4 101.831 6.78875 -1.35775
1 103.192 8.19976 -2.69043
4 105.904 5.431 -2.7155
1 104.471 9.58058 -1.27775
4 107.262 6.78875 -1.35775
1 108.432 8.29687 -2.67184
5 0 29.8705 2.63198
5 2.7155 27.155 -2.66834
5 1.35775 31.2283 -1.41954
5 4.07325 28.5128 -1.41133
5 5.431 29.8705 2.69468
5 8.1465 27.155 2.65187
5 6.78875 31.2283 -1.37557
5 9.50425 28.5128 -1.35301
5 10.862 29.8705 -2.70665
5 13.5775 27.155 2.70071
5 12.2197 31.2283 -1.28115
5 14.9352 28.5128 -1.35625
5 16.293 29.8705 -2.66331
5 19.0085 27.155 -2.66278
5 17.6507 31.2283 -1.27732
5 20.3663 28.5128 -1.2992
5 21.724 29.8705 -2.66359
5 24.4395 27.155 -2.70287
5 23.0817 31.2283 -1.19674
5 25.7973 28.5128 -1.26974
5 27.155 29.8705 -2.59502
5 29.8705 27.155 -2.65836
5 28.5128 31.2283 -1.25159
5 31.2282 28.5128 -1.34759
5 32.586 29.8705 -2.65618
5 35.3015 27.155 2.69208
5 33.9438 31.2283 -1.36378
5 36.6593 28.5128 -1.41571
5 38.017 29.8705 2.63976
5 40.7325 27.155 2.70688
5 39.3747 31.2283 -1.47285
5 42.0902 28.5128 -1.3132
5 43.448 29.8705 -2.65676
5 46.1635 27.155 -2.63974
5 44.8058 31.2283 -1.32647
5 47.5213 28.5128 -1.28961
1 49.0053 30.0528 -2.65868
1 52.5618 12.5697 1.05339
1 50.2722 31.2165 -1.04224
1 54.6109 13.4802 1.79807
1 54.7086 20.4741 -1.97142
1 56.8153 10.8768 2.58849
1 55.097 16.9251 -0.0158879
1 57.6528 12.184 -1.09583
1 59.0602 13.8829 -2.3045
1 62.1152 11.0627 -2.59061
1 60.4557 15.2848 -1.00292
1 63.275 12.4712 -1.06835
1 64.5864 13.8662 -2.45003
1 67.5145 11.1092 -2.58045
1 65.9071 15.3452 -1.03919
1 68.7304 12.5346 -1.24054
1 69.9912 13.9608 -2.59829
1 72.9149 11.0434 2.74472
1 71.3351 15.3154 -1.15251
1 74.1904 12.4358 -1.26101
1 75.4751 13.7349 2.66748
1 78.4914 10.8954 2.59496
1 76.7695 15.0243 -1.323
1 79.7399 12.3051 -1.31405
1 81.0502 13.6602 -2.7127
1 83.9792 10.9327 2.69183
1 82.3247 15.0427 -1.29008
1 85.2758 12.2503 -1.25576
1 86.55 13.6438 -2.66413
1 89.3913 10.8961 -2.6578
1 87.8094 14.9628 -1.23275
1 90.7102 12.2395 -1.23774
1 91.9947 13.6158 -2.63288
1 94.9409 10.8954 2.66036
1 93.3631 14.9621 -1.23763
1 96.2253 12.2298 -1.27804
1 97.5509 13.6636 -2.58703
1 100.378 10.9576 -2.6361
1 98.8699 15.0192 -1.17737
1 101.706 12.3403 -1.27782
1 102.953 13.7653 -2.69009
1 105.708 11.0183 -2.66494
1 104.263 15.1553 -1.31384
1 107.065 12.3876 -1.2376
1 108.351 13.8245 -2.55732
5 0 35.3015 -2.68297
5 2.7155 32.586 2.66817
5 1.35775 36.6593 -1.35284
5 4.07325 33.9438 -1.38681
5 5.431 35.3015 -2.69603
5 8.1465 32.586 -2.67038
5 6.78875 36.6593 -1.36454
5 9.50425 33.9438 -1.3325
5 10.862 35.3015 -2.69503
5 13.5775 32.586 -2.67287
5 12.2197 36.6593 -1.38315
5 14.9352 33.9438 -1.25766
5 16.293 35.3015 -2.60809
5 19.0085 32.586 -2.61029
5 17.6507 36.6593 -1.26276
5 20.3663 33.9438 -1.26122
5 21.724 35.3015 -2.56915
5 24.4395 32.586 -2.60442
5 23.0817 36.6593 -1.29124
5 25.7973 33.9438 -1.27091
5 27.155 35.3015 -2.61904
5 29.8705 32.586 -2.60565
5 28.5128 36.6593 -1.34844
5 31.2282 33.9438 -1.27871
5 32.586 35.3015 -2.64748
5 35.3015 32.586 -2.70053
5 33.9438 36.6593 -1.25023
5 36.6593 33.9438 -1.34704
5 38.017 35.3015 2.67259
5 40.7325 32.586 2.63251
5 39.3747 36.6593 -1.36259
5 42.0902 33.9438 -1.39646
5 43.448 35.3015 2.68707
5 46.1635 32.586 2.71548
5 44.8058 36.6593 -1.35067
5 47.5213 33.9438 -1.28631
1 49.0184 34.6421 2.19383
1 50.7514 29.9894 1.05044
1 50.4308 36.1223 -2.09232
1 52.9134 28.7553 1.96438
1 55.4845 24.2935 0.81764
1 56.2615 17.0341 -2.20121
1 53.8915 26.8679 -1.87775
1 57.6935 18.2942 -0.937714
1 58.92 19.6229 -2.48684
1 61.6927 16.7064 -2.38607
1 60.2689 20.9435 -1.04644
1 63.0842 18.121 -1.09986
1 64.4621 19.5219 -2.50293
1 67.2411 16.7788 -2.47985
1 65.6392 21.0457 -1.10416
1 68.5708 18.1822 -1.10822
1 69.7922 19.5623 -2.58684
1 72.6115 16.5799 -2.56145
1 71.0354 20.8759 -1.06215
1 73.8619 17.8852 -1.07789
1 75.2231 19.2102 -2.42649
1 78.076 16.3963 -2.65921
1 76.5396 20.5294 -1.06203
1 79.3857 17.7298 -1.18315
1 80.7413 19.0609 -2.5256
1 83.7158 16.3455 -2.61198
1 82.0997 20.4169 -1.13034
1 85.026 17.6417 -1.12054
1 86.265 19.0451 -2.46547
1 89.1493 16.3155 -2.53325
1 87.5824 20.3999 -1.09792
1 90.4097 17.7086 -1.09267
1 91.7871 19.0245 -2.46912
1 94.7104 16.3492 -2.54621
1 93.1385 20.422 -1.0781
1 96.104 17.6764 -1.09175
1 97.3826 19.1052 -2.46392
1 100.242 16.3788 -2.53189
1 98.6473 20.5122 -1.10517
1 101.534 17.8171 -1.14921
1 102.833 19.2222 -2.52279
1 105.629 16.5023 -2.58497
1 104.166 20.5917 -1.13251
1 106.908 17.8399 -1.08946
1 108.184 19.2603 -2.42965
5 0 40.7325 -2.60516
5 2.7155 38.017 -2.61144
5 1.35775 42.0903 -1.32667
5 4.07325 39.3748 -1.27164
5 5.431 40.7325 -2.60767
5 8.1465 38.017 2.70293
5 6.78875 42.0903 -1.25386
5 9.50425 39.3748 -1.3714
5 10.862 40.7325 2.66431
5 13.5775 38.017 2.68096
5 12.2197 42.0903 -1.34487
5 14.9352 39.3748 -1.40261
5 16.293 40.7325 -2.70308
5 19.0085 38.017 -2.61801
5 17.6507 42.0903 -1.35988
5 20.3663 39.3748 -1.29193
5 21.724 40.7325 -2.70039
5 24.4395 38.017 -2.65922
5 23.0817 42.0903 -1.33539
5 25.7973 39.3748 -1.31983
5 27.155 40.7325 -2.6812
5 29.8705 38.017 -2.66451
5 28.5128 42.0903 -1.28017
5 31.2282 39.3748 -1.31945
5 32.586 40.7325 -2.67376
5 35.3015 38.017 -2.61113
5 33.9438 42.0903 -1.32215
5 36.6593 39.3748 -1.33108
5 38.017 40.7325 -2.71374
5 40.7325 38.017 2.61908
5 39.3747 42.0903 -1.37859
5 42.0902 39.3748 -1.3818
5 43.448 40.7325 2.67422
5 46.1635 38.017 -2.68487
5 44.8058 42.0903 -1.30629
5 47.5213 39.3748 -1.37882
1 49.197 40.307 2.47306
1 52.1104 35.9878 1.52261
1 50.412 41.4115 -1.24078
1 51.9977 34.7379 -0.731757
1 54.0438 34.7504 2.22118
1 55.9153 22.5286 2.5679
1 54.7642 31.6424 0.0141419
1 57.1574 23.6292 -0.836484
1 59.0559 24.8818 -1.70748
1 61.6365 22.2917 -2.46655
1 59.7386 27.0718 -0.756659
1 62.8026 23.8077 -0.968503
1 64.0143 25.1785 -2.43525
1 66.9871 22.361 -2.50609
1 65.259 26.6301 -0.954552
1 68.1611 23.7682 -1.00768
1 69.501 25.0395 -2.43886
1 72.3929 22.1305 -2.50068
1 70.8131 26.3285 -0.912765
1 73.7956 23.3576 -1.02509
1 75.0897 24.7104 -2.43266
1 77.8647 21.8025 -2.41752
1 76.412 26.0833 -0.998425
1 79.2502 23.1442 -1.02186
1 80.5852 24.552 -2.43135
1 83.4007 21.8399 -2.4531
1 81.9409 25.925 -1.05174
1 84.7275 23.2019 -1.08001
1 86.1371 24.5672 -2.4869
1 88.9518 21.7333 -2.54772
1 87.5364 25.8924 -1.08322
1 90.2789 23.0622 -1.10844
1 91.6886 24.4647 -2.39028
1 94.5141 21.8497 -2.39034
1 93.018 25.8621 -0.951818
1 95.8214 23.2344 -0.982421
1 97.1263 24.5476 -2.40198
1 100.001 21.8617 -2.42792
1 98.4212 25.9146 -0.981443
1 101.275 23.3093 -1.03011
1 102.635 24.6378 -2.3777
1 105.476 21.9774 -2.4933
1 103.928 26.0651 -1.01162
1 106.731 23.3872 -1.04818
1 108.021 24.7662 -2.42924
5 0 46.1635 -2.61255
5 2.7155 43.448 -2.65371
5 1.35775 47.5213 -1.27513
5 4.07325 44.8058 -1.30261
5 5.431 46.1635 -2.64002
5 8.1465 43.448 -2.59984
5 6.78875 47.5213 -1.3368
5 9.50425 44.8058 -1.27458
5 10.862 46.1635 -2.67215
5 13.5775 43.448 -2.69727
5 12.2197 47.5213 -1.34555
5 14.9352 44.8058 -1.32603
5 16.293 46.1635 -2.69421
5 19.0085 43.448 -2.66204
5 17.6507 47.5213 -1.3507
5 20.3663 44.8058 -1.34382
5 21.724 46.1635 -2.62154
5 24.4395 43.448 -2.65716
5 23.0817 47.5213 -1.2423
5 25.7973 44.8058 -1.32218
5 27.155 46.1635 -2.65781
5 29.8705 43.448 -2.61485
5 28.5128 47.5213 -1.29348
5 31.2282 44.8058 -1.28748
5 32.586 46.1635 2.67894
5 35.3015 43.448 2.69709
5 33.9438 47.5213 -1.35029
5 36.6593 44.8058 -1.40766
5 38.017 46.1635 -2.6921
5 40.7325 43.448 -2.68114
5 39.3747 47.5213 -1.34217
5 42.0902 44.8058 -1.32669
5 43.448 46.1635 -2.70833
5 46.1635 43.448 -2.69833
5 44.8058 47.5213 -1.35261
5 47.5213 44.8058 -1.25627
1 48.8265 45.9185 2.5498
1 51.0727 41.8028 1.82472
1 50.4458 47.1795 -1.47686
1 53.3336 41.4607 -2.83674
1 54.9696 38.3714 0.792501
1 54.0627 30.3899 -2.14078
1 55.2461 39.6892 -2.11848
1 56.0876 33.4744 -0.76189
1 57.5535 32.2571 -2.52261
1 61.088 28.0841 -2.47309
1 59.5611 32.6092 -1.21182
1 62.0972 29.6216 -0.960568
1 63.6906 30.9048 -2.33238
1 66.5909 28.0375 -2.35619
1 65.2965 32.1006 -0.929168
1 67.9923 29.2019 -0.870393
1 69.4616 30.457 -2.26814
1 72.2476 27.5413 -2.36123
1 70.8743 31.7827 -0.945452
1 73.6314 28.9271 -0.854304
1 75.0258 30.1706 -2.24445
1 77.762 27.3615 -2.36631
1 76.4123 31.4519 -0.886595
1 79.1123 28.6364 -0.957114
1 80.5262 29.9476 -2.31702
1 83.3436 27.2281 -2.40658
1 81.963 31.2851 -0.984882
1 84.6941 28.6166 -1.09465
1 86.0828 29.9722 -2.4276
1 88.8526 27.2966 -2.46133
1 87.4408 31.3037 -1.07457
1 90.2179 28.6063 -0.997557
1 91.5673 29.9313 -2.41249
1 94.3499 27.2305 -2.30533
1 92.9053 31.2408 -1.00749
1 95.6827 28.5412 -0.979916
1 97.0158 29.8904 -2.32313
1 99.8164 27.2842 -2.31442
1 98.4314 31.1671 -0.954504
1 101.153 28.6951 -0.949695
1 102.608 30.0085 -2.33983
1 105.321 27.2956 -2.41758
1 103.998 31.4013 -0.992494
1 106.706 28.6531 -1.05708
1 108.027 30.0468 -2.35761
5 0 51.5945 -2.63206
5 2.7155 48.879 -2.62245
5 1.35775 52.9523 -1.23887
5 4.07325 50.2368 -1.37622
5 5.431 51.5945 -2.70393
5 8.1465 48.879 -2.64732
5 6.78875 52.9523 -1.31106
5 9.50425 50.2368 -1.31103
5 10.862 51.5945 -2.71065
5 13.5775 48.879 -2.69663
5 12.2197 52.9523 -1.33369
5 14.9352 50.2368 -1.42543
5 16.293 51.5945 2.65473
5 19.0085 48.879 -2.70883
5 17.6507 52.9523 -1.40294
5 20.3663 50.2368 -1.3188
5 21.724 51.5945 -2.67508
5 24.4395 48.879 -2.635
5 23.0817 52.9523 -1.29482
5 25.7973 50.2368 -1.25273
5 27.155 51.5945 -2.64535
5 29.8705 48.879 -2.66406
5 28.5128 52.9523 -1.30055
5 31.2282 50.2368 -1.34962
5 32.586 51.5945 -2.65732
5 35.3015 48.879 2.68513
5 33.9438 52.9523 -1.29404
5 36.6593 50.2368 -1.30892
5 38.017 51.5945 -2.65154
5 40.7325 48.879 2.71404
5 39.3747 52.9523 -1.32387
5 42.0902 50.2368 -1.3825
5 43.448 51.5945 2.69512
5 46.1635 48.879 -2.68039
5 44.8058 52.9523 -1.31034
5 47.5213 50.2368 -1.29656
1 48.7797 51.4136 2.71832
1 51.5693 47.8997 1.9296
1 50.4251 52.5445 -1.3398
1 53.8155 46.1881 0.234639
1 54.6321 44.9926 -1.83531
1 56.3077 37.2435 -2.05013
1 57.1467 41.1223 2.47559
1 57.4554 36.8467 -0.152926
1 58.7019 37.5896 2.76122
1 61.0629 33.8587 -2.4384
1 60.0196 38.3933 -0.998634
1 62.5696 35.132 -1.07757
1 63.9817 36.5043 -2.41704
1 66.7129 33.3377 -2.26363
1 65.3646 37.6484 -1.01337
1 68.1111 34.6571 -0.918375
1 69.594 35.9537 -2.37562
1 72.2157 33.1219 -2.27795
1 71.033 37.2437 -0.972428
1 73.6776 34.3631 -0.883683
1 75.055 35.6411 -2.31741
1 77.771 32.8072 -2.30058
1 76.4649 36.9262 -0.956917
1 79.1523 34.0896 -0.889041
1 80.515 35.4162 -2.29394
1 83.289 32.645 -2.36552
1 81.9307 36.6843 -0.870577
1 84.6248 34.0186 -1.00431
1 86.0544 35.3413 -2.27872
1 88.7982 32.6669 -2.41538
1 87.4596 36.6647 -0.953297
1 90.205 33.9123 -1.00546
1 91.5896 35.2612 -2.33741
1 94.3005 32.5835 -2.35971
1 92.965 36.6334 -1.0167
1 95.6832 33.9529 -1.00931
1 97.1078 35.3404 -2.29305
1 99.8185 32.5991 -2.21824
1 98.4703 36.6011 -0.789258
1 101.221 33.9599 -0.878606
1 102.651 35.3048 -2.15834
1 105.43 32.7458 -2.24943
1 104.082 36.6465 -0.782539
1 106.87 34.0787 -0.89101
1 108.221 35.58 -2.10658
5 0 57.0255 -2.7087
5 2.7155 54.31 -2.66017
5 1.35775 58.3833 -1.34666
5 4.07325 55.6678 -1.33436
5 5.431 57.0255 -2.70139
5 8.1465 54.31 2.67524
5 6.78875 58.3833 -1.38754
5 9.50425 55.6678 -1.33276
5 10.862 57.0255 2.70549
5 13.5775 54.31 2.70846
5 12.2197 58.3833 -1.36249
5 14.9352 55.6678 -1.42273
5 16.293 57.0255 2.63609
5 19.0085 54.31 2.69188
5 17.6507 58.3833 -1.39416
5 20.3663 55.6678 -1.36012
5 21.724 57.0255 -2.64803
5 24.4395 54.31 -2.61737
5 23.0817 58.3833 -1.29583
5 25.7973 55.6678 -1.29132
5 27.155 57.0255 -2.6977
5 29.8705 54.31 -2.6352
5 28.5128 58.3833 -1.33573
5 31.2282 55.6678 -1.2468
5 32.586 57.0255 2.70267
5 35.3015 54.31 -2.67157
5 33.9438 58.3833 -1.43523
5 36.6593 55.6678 -1.34332
5 38.017 57.0255 -2.70054
5 40.7325 54.31 -2.63009
5 39.3747 58.3833 -1.3665
5 42.0902 55.6678 -1.31323
5 43.448 57.0255 -2.69775
5 46.1635 54.31 -2.69548
5 44.8058 58.3833 -1.38377
5 47.5213 55.6678 -1.43507
1 48.9341 57.0679 -2.62348
1 51.8469 53.7866 2.59485
1 50.3124 58.5898 -1.34492
1 53.6856 51.5792 -0.651127
1 53.2871 48.8699 -2.427
1 56.0155 43.4618 2.20557
1 54.9048 49.356 0.11253
1 57.7442 43.7183 -1.22771
1 58.7757 43.555 2.18509
1 61.3024 39.6907 -2.56375
1 60.2041 44.1784 -1.13469
1 62.8771 40.8871 -1.21229
1 64.374 42.0324 -2.48744
1 66.7705 38.9618 -2.40782
1 65.9363 43.1749 -1.08177
1 68.331 40.1629 -1.07716
1 69.8529 41.3711 -2.39507
1 72.4239 38.5584 -2.42422
1 71.3844 42.6061 -1.10098
1 73.8702 39.8002 -1.04704
1 75.3395 41.023 -2.35573
1 77.9264 38.2178 -2.29035
1 76.7871 42.319 -1.00413
1 79.329 39.5338 -0.945924
1 80.7959 40.7943 -2.27578
1 83.385 37.9861 -2.21232
1 82.2006 42.0229 -0.863357
1 84.7943 39.3423 -0.8521
1 86.2588 40.6565 -2.23371
1 88.924 37.9186 -2.30253
1 87.6103 42.044 -0.955597
1 90.3586 39.3115 -0.985281
1 91.7881 40.718 -2.28923
1 94.3294 37.9809 -2.30885
1 93.128 42.054 -0.877745
1 95.7009 39.2976 -0.898257
1 97.045 40.6048 -2.2558
1 99.8435 37.9452 -2.14726
1 98.4327 41.8748 -0.818734
1 101.215 39.2172 -0.693339
1 102.585 40.5611 -2.0298
1 105.378 37.9833 -2.18459
1 103.897 41.9431 -0.684755
1 106.676 39.3776 -0.723907
1 107.998 40.7341 -2.0923
5 0 62.4565 2.69626
5 2.7155 59.741 2.70377
5 1.35775 63.8143 -1.43462
5 4.07325 61.0988 -1.3614
5 5.431 62.4565 2.66903
5 8.1465 59.741 2.69325
5 6.78875 63.8143 -1.42813
5 9.50425 61.0988 -1.39917
5 10.862 62.4565 -2.69138
5 13.5775 59.741 2.6786
5 12.2197 63.8143 -1.32651
5 14.9352 61.0988 -1.41305
5 16.293 62.4565 2.68531
5 19.0085 59.741 2.6318
5 17.6507 63.8143 -1.37599
5 20.3663 61.0988 -1.34193
5 21.724 62.4565 -2.70744
5 24.4395 59.741 -2.69157
5 23.0817 63.8143 -1.42461
5 25.7973 61.0988 -1.32762
5 27.155 62.4565 -2.69109
5 29.8705 59.741 2.68948
5 28.5128 63.8143 -1.34445
5 31.2282 61.0988 -1.39488
5 32.586 62.4565 2.62298
5 35.3015 59.741 2.67038
5 33.9438 63.8143 -1.44312
5 36.6593 61.0988 -1.34959
5 38.017 62.4565 2.65295
5 40.7325 59.741 2.67151
5 39.3747 63.8143 -1.39945
5 42.0902 61.0988 -1.42137
5 43.448 62.4565 2.64212
5 46.1635 59.741 2.68335
5 44.8058 63.8143 -1.39413
5 47.5213 61.0988 -1.3556
1 48.8892 62.5516 -2.64989
1 51.7451 59.8431 2.51877
1 50.3233 63.6191 -1.04468
1 54.7111 59.081 -0.481307
1 55.2013 51.8551 -2.66643
1 56.2376 48.2452 -1.51882
1 56.8682 52.1787 -0.642764
1 58.6104 48.2601 -0.881354
1 60.1239 49.0742 -2.40341
1 62.0096 45.1882 -2.42603
1 61.6661 49.9134 -0.810609
1 63.6657 46.2963 -1.07642
1 65.2878 47.3715 -2.45362
1 67.4704 44.3757 -2.44658
1 66.7591 48.6101 -1.10753
1 68.9989 45.5675 -1.1168
1 70.4029 46.8387 -2.47096
1 72.8559 43.8133 -2.38798
1 71.9151 47.9664 -1.17301
1 74.3016 45.069 -1.03976
1 75.7949 46.3979 -2.36909
1 78.2002 43.5913 -2.36789
1 77.2588 47.71 -1.07593
1 79.6839 44.8713 -1.07157
1 81.1144 46.1848 -2.36896
1 83.6481 43.3728 -2.20253
1 82.4927 47.5702 -1.04096
1 84.9627 44.6998 -0.860333
1 86.3313 46.0233 -2.2952
1 88.982 43.4115 -2.31829
1 87.75 47.3759 -0.982227
1 90.4152 44.7775 -1.00512
1 91.8392 46.1557 -2.24208
1 94.5075 43.3212 -2.2457
1 93.1412 47.435 -0.820248
1 95.8147 44.7219 -0.900392
1 97.1197 46.0914 -2.25806
1 99.8673 43.286 -2.12742
1 98.5337 47.4098 -0.827
1 101.229 44.5916 -0.707887
1 102.609 46.0026 -2.03957
1 105.342 43.3004 -1.94078
1 103.904 47.3811 -0.630576
1 106.661 44.7302 -0.617615
1 107.983 46.1801 -1.88881
5 0 67.8875 2.57754
5 2.7155 65.172 2.64053
5 1.35775 69.2453 -1.64768
5 4.07325 66.5298 -1.50163
5 5.431 67.8875 2.56851
5 8.1465 65.172 2.62507
5 6.78875 69.2453 -1.42812
5 9.50425 66.5298 -1.37979
5 10.862 67.8875 -2.69272
5 13.5775 65.172 -2.66952
5 12.2197 69.2453 -1.39708
5 14.9352 66.5298 -1.43616
5 16.293 67.8875 -2.69633
5 19.0085 65.172 2.68719
5 17.6507 69.2453 -1.33896
5 20.3663 66.5298 -1.34394
5 21.724 67.8875 -2.69455
5 24.4395 65.172 2.68998
5 23.0817 69.2453 -1.26596
5 25.7973 66.5298 -1.39947
5 27.155 67.8875 2.63398
5 29.8705 65.172 2.63662
5 28.5128 69.2453 -1.50085
5 31.2282 66.5298 -1.47108
5 32.586 67.8875 2.6301
5 35.3015 65.172 2.61251
5 33.9438 69.2453 -1.50733
5 36.6593 66.5298 -1.47034
5 38.017 67.8875 2.59325
5 40.7325 65.172 2.62687
5 39.3747 69.2453 -1.5399
5 42.0902 66.5298 -1.42688
5 43.448 67.8875 2.68125
5 46.1635 65.172 -2.71417
5 44.8058 69.2453 -1.3795
5 47.5213 66.5298 -1.3201
1 49.654 67.3449 -1.5811
1 53.2785 60.8978 -1.58871
1 50.8105 66.6279 1.07989
1 54.1089 57.507 -2.40133
1 56.5296 56.934 -2.61113
1 58.2281 53.0246 -2.29062
1 58.0548 57.3002 -0.824602
1 59.8637 53.7457 -0.862311
1 61.4015 54.537 -2.34653
1 63.1424 50.8876 -2.37193
1 63.0054 55.5453 -0.914471
1 64.7856 51.9066 -1.06366
1 66.1991 53.175 -2.52709
1 68.1179 49.8261 -2.60943
1 67.6917 54.2963 -1.16461
1 69.7562 50.9899 -1.33162
1 71.2513 52.1975 -2.56106
1 73.4162 49.3022 -2.45519
1 72.6221 53.4875 -1.20418
1 74.9011 50.6612 -1.11333
1 76.3286 51.9964 -2.47774
1 78.6562 49.0788 -2.402
1 77.6965 53.3758 -1.12706
1 80.0317 50.4158 -1.09921
1 81.3661 51.7463 -2.47479
1 83.8621 48.9322 -2.39846
1 82.6608 53.0581 -1.03555
1 85.2622 50.208 -0.973146
1 86.6863 51.5097 -2.32664
1 89.1514 48.7222 -2.28256
1 88.0151 52.9728 -1.04921
1 90.5026 50.1426 -0.961512
1 91.8779 51.537 -2.26773
1 94.437 48.8026 -2.23141
1 93.1636 52.8143 -0.884963
1 95.8172 50.125 -0.871828
1 97.1886 51.5481 -2.17383
1 99.8698 48.7964 -2.10364
1 98.5089 52.9031 -0.757471
1 101.204 50.1732 -0.713064
1 102.563 51.527 -2.00597
1 105.285 48.8122 -1.94178
1 103.969 52.8521 -0.62621
1 106.644 50.1167 -0.561267
1 108.091 51.4699 -1.90434
5 2.7155 70.603 2.54749
5 8.1465 70.603 2.64951
5 13.5775 70.603 -2.68338
5 19.0085 70.603 -2.68381
5 24.4395 70.603 -2.67579
5 29.8705 70.603 2.66759
5 35.3015 70.603 2.59217
5 40.7325 70.603 2.5164
5 46.1635 70.603 2.66036
1 52.9975 65.8872 -0.0448067
1 59.7358 58.0324 -2.05607
1 64.5386 56.5488 -2.33007
1 69.2073 55.3486 -2.49034
1 73.9738 54.8582 -2.58111
1 79.0056 54.677 -2.52476
1 84.2317 54.2795 -2.21333
1 89.3905 54.3237 -2.31876
1 94.3827 54.2099 -2.26218
1 99.8326 54.2683 -2.03897
1 105.435 54.1779 -1.84514
5 0 16.293 0
5 2.7155 19.0085 0
5 1.35775 17.6507 1.35775
5 4.07325 20.3663 1.35775
5 5.431 16.293 0
5 8.1465 19.0085 0
5 6.78875 17.6507 1.35775
5 9.50425 20.3663 1.35775
5 10.862 16.293 0
5 13.5775 19.0085 0
5 12.2197 17.6507 1.35775
5 14.9352 20.3663 1.35775
5 16.293 16.293 0
5 19.0085 19.0085 0
5 17.6507 17.6507 1.35775
5 20.3663 20.3663 1.35775
5 21.724 16.293 0
5 24.4395 19.0085 0
5 23.0817 17.6507 1.35775
5 25.7973 20.3663 1.35775
5 27.155 16.293 0
5 29.8705 19.0085 0
5 28.5128 17.6507 1.35775
5 31.2282 20.3663 1.35775
5 32.586 16.293 0
5 35.3015 19.0085 0
5 33.9438 17.6507 1.35775
5 36.6593 20.3663 1.35775
5 38.017 16.293 0
5 40.7325 19.0085 0
5 39.3747 17.6507 1.35775
5 42.0902 20.3663 1.35775
5 43.448 16.293 0
5 46.1635 19.0085 0
5 44.8058 17.6507 1.35775
5 47.5213 20.3663 1.35775
4 48.879 0 0
4 51.5945 2.7155 0
4 50.2368 1.35775 1.35775
4 52.9522 4.07325 1.35775
4 54.31 0 0
4 57.0255 2.7155 0
4 55.6677 1.35775 1.35775
4 58.3833 4.07325 1.35775
4 59.741 0 0
4 62.4565 2.7155 0
4 61.0988 1.35775 1.35775
4 63.8143 4.07325 1.35775
4 65.172 0 0
4 67.8875 2.7155 0
4 66.5298 1.35775 1.35775
4 69.2452 4.07325 1.35775
4 70.603 0 0
4 73.3185 2.7155 0
4 71.9608 1.35775 1.35775
4 74.6762 4.07325 1.35775
4 76.034 0 0
4 78.7495 2.7155 0
4 77.3918 1.35775 1.35775
4 80.1073 4.07325 1.35775
4 81.465 0 0
4 84.1805 2.7155 0
4 82.8227 1.35775 1.35775
4 85.5383 4.07325 1.35775
4 86.896 0 0
4 89.6115 2.7155 0
4 88.2537 1.35775 1.35775
4 90.9693 4.07325 1.35775
4 92.327 0 0
4 95.0425 2.7155 0
4 93.6847 1.35775 1.35775
4 96.4002 4.07325 1.35775
4 97.758 0 0
4 100.474 2.7155 0
4 99.1158 1.35775 1.35775
4 101.831 4.07325 1.35775
4 103.189 0 0
4 105.904 2.7155 0
4 104.547 1.35775 1.35775
4 107.262 4.07325 1.35775
4 108.62 0 0
5 0 21.724 0
5 2.7155 24.4395 -0.030378
5 1.35775 23.0818 1.35775
5 4.07325 25.7973 1.31966
5 5.431 21.724 0
5 8.1465 24.4395 -0.00207584
5 6.78875 23.0818 1.35775
5 9.50425 25.7973 1.35242
5 10.862 21.724 0
5 13.5775 24.4395 -0.00491819
5 12.2197 23.0818 1.35775
5 14.9352 25.7973 1.31869
5 16.293 21.724 0
5 19.0085 24.4395 0.00290528
5 17.6507 23.0818 1.35775
5 20.3663 25.7973 1.35757
5 21.724 21.724 0
5 24.4395 24.4395 0.003671
5 23.0817 23.0818 1.35775
5 25.7973 25.7973 1.35541
5 27.155 21.724 0
5 29.8705 24.4395 0.0272404
5 28.5128 23.0818 1.35775
5 31.2282 25.7973 1.35189
5 32.586 21.724 0
5 35.3015 24.4395 0.00908262
5 33.9438 23.0818 1.35775
5 36.6593 25.7973 1.3219
5 38.017 21.724 0
5 40.7325 24.4395 0.0378749
5 39.3747 23.0818 1.35775
5 42.0902 25.7973 1.41817
5 43.448 21.724 0
5 46.1635 24.4395 0.0287579
5 44.8058 23.0818 1.35775
5 47.5213 25.7973 1.47408
4 48.879 5.431 0
1 51.5041 8.07436 -0.0860544
4 50.2368 6.78875 1.35775
1 52.9061 9.47415 1.22519
4 54.31 5.431 0
1 56.9569 8.13903 -0.0333512
4 55.6677 6.78875 1.35775
1 58.2609 9.49164 1.40342
4 59.741 5.431 0
1 62.376 8.22805 -0.00472104
4 61.0988 6.78875 1.35775
1 63.5203 9.65197 1.51837
4 65.172 5.431 0
1 67.7681 8.31937 0.0101934
4 66.5298 6.78875 1.35775
1 68.9395 9.79517 1.44406
4 70.603 5.431 0
1 73.2072 8.21843 -0.067429
4 71.9608 6.78875 1.35775
1 74.4594 9.58242 1.39411
4 76.034 5.431 0
1 78.7478 8.17569 -0.0276167
4 77.3918 6.78875 1.35775
1 80.0104 9.57581 1.32668
4 81.465 5.431 0
1 84.1779 8.1136 0.00582455
4 82.8227 6.78875 1.35775
1 85.4093 9.47393 1.45553
4 86.896 5.431 0
1 89.5327 8.19029 0.0385805
4 88.2537 6.78875 1.35775
1 90.8692 9.55463 1.38387
4 92.327 5.431 0
1 95.035 8.14496 -0.00338465
4 93.6847 6.78875 1.35775
1 96.3675 9.47435 1.41706
4 97.758 5.431 0
1 100.47 8.16117 0.0590538
4 99.1158 6.78875 1.35775
1 101.775 9.57582 1.45377
4 103.189 5.431 0
1 105.902 8.17499 -0.0242978
4 104.547 6.78875 1.35775
1 107.094 9.62831 1.43243
4 108.62 5.431 0
5 0 27.155 -0.0123317
5 2.7155 29.8705 -0.0900773
5 1.35775 28.5128 1.31363
5 4.07325 31.2283 1.31552
5 5.431 27.155 -0.028277
5 8.1465 29.8705 0.0736872
5 6.78875 28.5128 1.35572
5 9.50425 31.2283 1.42897
5 10.862 27.155 -0.00815739
5 13.5775 29.8705 -0.00889917
5 12.2197 28.5128 1.39536
5 14.9352 31.2283 1.38529
5 16.293 27.155 0.0549538
5 19.0085 29.8705 0.0554889
5 17.6507 28.5128 1.37918
5 20.3663 31.2283 1.42657
5 21.724 27.155 0.0208951
5 24.4395 29.8705 0.114043
5 23.0817 28.5128 1.44745
5 25.7973 31.2283 1.4422
5 27.155 27.155 0.0476033
5 29.8705 29.8705 0.0464293
5 28.5128 28.5128 1.43601
5 31.2282 31.2283 1.44514
5 32.586 27.155 0.00606015
5 35.3015 29.8705 -0.0125542
5 33.9438 28.5128 1.32988
5 36.6593 31.2283 1.30038
5 38.017 27.155 -0.0451612
5 40.7325 29.8705 -0.0331181
5 39.3747 28.5128 1.29728
5 42.0902 31.2283 1.31001
5 43.448 27.155 0.0909414
5 46.1635 29.8705 0.049535
5 44.8058 28.5128 1.44404
5 47.5213 31.2283 1.35682
1 48.7477 26.6922 -0.373689
1 51.6296 24.4607 -2.15433
1 52.1559 26.3594 1.71232
1 53.3431 22.4507 -2.75532
1 53.6977 10.9393 -0.470217
1 56.057 14.8753 0.491152
1 55.7589 11.8519 0.607765
1 57.7562 15.5038 1.9379
1 59.4416 11.0256 0.116283
1 61.8629 13.8966 0.354656
1 60.546 12.4346 1.73803
1 63.0832 15.328 1.64965
1 64.7912 11.0881 0.158802
1 67.3223 13.9269 0.24447
1 65.9882 12.5169 1.59184
1 68.6609 15.3877 1.54473
1 70.233 11.1409 -0.000102443
1 72.751 13.844 0.004619
1 71.4493 12.5648 1.40327
1 73.9851 15.1381 1.43258
1 75.7011 11.0569 0.0423999
1 78.2545 13.6919 -0.0138635
1 77.0069 12.3592 1.43859
1 79.5499 15.0183 1.42566
1 81.2794 10.9177 -0.100115
1 83.8322 13.642 0.0342292
1 82.4667 12.2368 1.34725
1 85.1338 14.9179 1.51163
1 86.6773 10.9436 0.100762
1 89.2257 13.615 0.0953138
1 87.9476 12.2848 1.50843
1 90.5384 14.9857 1.49947
1 92.2198 10.9129 0.0313773
1 94.8324 13.6312 0.0897796
1 93.4993 12.287 1.43146
1 96.1646 14.9954 1.48012
1 97.6206 10.8986 0.0776058
1 100.264 13.5996 0.0902482
1 98.9283 12.2626 1.4721
1 101.541 15.0071 1.454
1 103.053 10.9472 0.0273262
1 105.643 13.7931 0.0472483
1 104.314 12.3821 1.3674
1 106.979 15.0885 1.49584
1 108.435 11.0873 0.148485
5 0 32.586 -0.0173586
5 2.7155 35.3015 -0.0570092
5 1.35775 33.9438 1.35192
5 4.07325 36.6593 1.36604
5 5.431 32.586 -0.0322161
5 8.1465 35.3015 -0.0570884
5 6.78875 33.9438 1.33234
5 9.50425 36.6593 1.3112
5 10.862 32.586 0.0309824
5 13.5775 35.3015 0.0204994
5 12.2197 33.9438 1.40551
5 14.9352 36.6593 1.37085
5 16.293 32.586 0.0443708
5 19.0085 35.3015 0.0781517
5 17.6507 33.9438 1.44641
5 20.3663 36.6593 1.49943
5 21.724 32.586 0.0729903
5 24.4395 35.3015 0.0643199
5 23.0817 33.9438 1.44338
5 25.7973 36.6593 1.43578
5 27.155 32.586 0.113391
5 29.8705 35.3015 0.0910919
5 28.5128 33.9438 1.44486
5 31.2282 36.6593 1.41612
5 32.586 32.586 0.0942093
5 35.3015 35.3015 0.134152
5 33.9438 33.9438 1.47964
5 36.6593 36.6593 1.48442
5 38.017 32.586 -0.0915324
5 40.7325 35.3015 -0.0843803
5 39.3747 33.9438 1.28708
5 42.0902 36.6593 1.31284
5 43.448 32.586 -0.0153745
5 46.1635 35.3015 -0.00254269
5 44.8058 33.9438 1.36298
5 47.5213 36.6593 1.37264
1 48.8618 32.7191 0.298022
1 52.4223 32.201 -1.56606
1 50.7791 32.5961 1.97383
1 52.8506 32.8926 0.777648
1 53.2723 25.0562 -0.161019
1 56.2102 19.7227 0.104833
1 55.1795 18.574 1.8621
1 57.4318 20.989 1.6437
1 59.0261 16.7547 0.3021
1 61.6904 19.5574 0.195143
1 60.3946 18.1952 1.6536
1 62.9775 20.8834 1.57168
1 64.4295 16.7394 0.229443
1 67.0832 19.5914 0.168526
1 65.8231 18.1996 1.57384
1 68.3655 20.9335 1.52765
1 70.0027 16.7566 0.214892
1 72.5245 19.3536 0.210029
1 71.2566 18.0671 1.64832
1 73.8936 20.6416 1.67796
1 75.3599 16.4181 0.044635
1 77.9537 19.1363 0.170681
1 76.6221 17.8292 1.5317
1 79.255 20.4133 1.61367
1 80.8564 16.4054 0.110349
1 83.5566 19.0501 0.141653
1 82.17 17.7041 1.49016
1 84.8447 20.4426 1.60957
1 86.4472 16.2946 0.175054
1 89.0227 19.0032 0.211371
1 87.7182 17.7039 1.61739
1 90.3758 20.3592 1.58071
1 91.8888 16.335 0.137289
1 94.6161 19.0481 0.243344
1 93.2453 17.6611 1.59487
1 95.9375 20.4838 1.65716
1 97.5441 16.4092 0.237538
1 100.081 19.1688 0.192027
1 98.8506 17.7798 1.64584
1 101.429 20.5727 1.55641
1 102.902 16.4014 0.142253
1 105.588 19.268 0.237169
1 104.201 17.8727 1.53642
1 106.84 20.647 1.61611
1 108.309 16.5378 0.220734
5 0 38.017 0.0148145
5 2.7155 40.7325 0.104191
5 1.35775 39.3748 1.42655
5 4.07325 42.0903 1.46704
5 5.431 38.017 0.0198245
5 8.1465 40.7325 0.0958405
5 6.78875 39.3748 1.4123
5 9.50425 42.0903 1.37623