1661
 Atoms. Timestep: 20000
5 0 13.5775 -2.7155
5 2.7155 10.862 -2.7155
5 1.35775 14.9352 -1.35775
5 4.07325 12.2197 -1.35775
5 5.431 13.5775 -2.7155
5 8.1465 10.862 -2.7155
5 6.78875 14.9352 -1.35775
5 9.50425 12.2197 -1.35775
5 10.862 13.5775 -2.7155
5 13.5775 10.862 -2.7155
5 12.2197 14.9352 -1.35775
5 14.9352 12.2197 -1.35775
5 16.293 13.5775 -2.7155
5 19.0085 10.862 -2.7155
5 17.6507 14.9352 -1.35775
5 20.3663 12.2197 -1.35775
5 21.724 13.5775 -2.7155
5 24.4395 10.862 -2.7155
5 23.0817 14.9352 -1.35775
5 25.7973 12.2197 -1.35775
5 27.155 13.5775 -2.7155
5 29.8705 10.862 -2.7155
5 28.5128 14.9352 -1.35775
5 31.2282 12.2197 -1.35775
5 32.586 13.5775 -2.7155
5 35.3015 10.862 -2.7155
5 33.9438 14.9352 -1.35775
5 36.6593 12.2197 -1.35775
5 38.017 13.5775 -2.7155
5 40.7325 10.862 -2.7155
5 39.3747 14.9352 -1.35775
5 42.0902 12.2197 -1.35775
5 43.448 13.5775 -2.7155
5 46.1635 10.862 -2.7155
5 44.8058 14.9352 -1.35775
5 47.5213 12.2197 -1.35775
4 48.879 2.7155 -2.7155
4 51.5945 0 -2.7155
4 50.2368 4.07325 -1.35775
4 52.9522 1.35775 -1.35775
4 54.31 2.7155 -2.7155
4 57.0255 0 -2.7155
4 55.6677 4.07325 -1.35775
4 58.3833 1.35775 -1.35775
4 59.741 2.7155 -2.7155
4 62.4565 0 -2.7155
4 61.0988 4.07325 -1.35775
4 63.8143 1.35775 -1.35775
4 65.172 2.7155 -2.7155
4 67.8875 0 -2.7155
4 66.5298 4.07325 -1.35775
4 69.2452 1.35775 -1.35775
4 70.603 2.7155 -2.7155
4 73.3185 0 -2.7155
4 71.9608 4.07325 -1.35775
4 74.6762 1.35775 -1.35775
4 76.034 2.7155 -2.7155
4 78.7495 0 -2.7155
4 77.3918 4.07325 -1.35775
4 80.1073 1.35775 -1.35775
4 81.465 2.7155 -2.7155
4 84.1805 0 -2.7155
4 82.8227 4.07325 -1.35775
4 85.5383 1.35775 -1.35775
4 86.896 2.7155 -2.7155
4 89.6115 0 -2.7155
4 88.2537 4.07325 -1.35775
4 90.9693 1.35775 -1.35775
4 92.327 2.7155 -2.7155
4 95.0425 0 -2.7155
4 93.6847 4.07325 -1.35775
4 96.4002 1.35775 -1.35775
4 97.758 2.7155 -2.7155
4 100.474 0 -2.7155
4 99.1158 4.07325 -1.35775
4 101.831 1.35775 -1.35775
4 103.189 2.7155 -2.7155
4 105.904 0 -2.7155
4 104.547 4.07325 -1.35775
4 107.262 1.35775 -1.35775
4 108.62 2.7155 -2.7155
5 0 19.0085 -2.71543
5 2.7155 16.293 -2.7155
5 1.35775 20.3663 -1.43774
5 4.07325 17.6508 -1.35775
5 5.431 19.0085 2.70864
5 8.1465 16.293 -2.7155
5 6.78875 20.3663 -1.38696
5 9.50425 17.6508 -1.35775
5 10.862 19.0085 2.70796
5 13.5775 16.293 -2.7155
5 12.2197 20.3663 -1.34508
5 14.9352 17.6508 -1.35775
5 16.293 19.0085 2.71168
5 19.0085 16.293 -2.7155
5 17.6507 20.3663 -1.3281
5 20.3663 17.6508 -1.35775
5 21.724 19.0085 -2.69657
5 24.4395 16.293 -2.7155
5 23.0817 20.3663 -1.30956
5 25.7973 17.6508 -1.35775
5 27.155 19.0085 2.69053
5 29.8705 16.293 -2.7155
5 28.5128 20.3663 -1.30363
5 31.2282 17.6508 -1.35775
5 32.586 19.0085 -2.70278
5 35.3015 16.293 -2.7155
5 33.9438 20.3663 -1.39425
5 36.6593 17.6508 -1.35775
5 38.017 19.0085 2.70511
5 40.7325 16.293 -2.7155
5 39.3747 20.3663 -1.34844
5 42.0902 17.6508 -1.35775
5 43.448 19.0085 2.71351
5 46.1635 16.293 -2.7155
5 44.8058 20.3663 -1.28321
5 47.5213 17.6508 -1.35775
1 48.8096 19.4365 -2.14145
4 51.5945 5.431 -2.7155
1 52.8691 11.8156 2.65777
4 52.9522 6.78875 -1.35775
1 54.1444 8.27282 2.44336
4 57.0255 5.431 -2.7155
1 55.6469 9.69342 -1.71726
4 58.3833 6.78875 -1.35775
1 59.6525 8.23882 2.66778
4 62.4565 5.431 -2.7155
1 60.8619 9.98075 -1.50088
4 63.8143 6.78875 -1.35775
1 64.9008 8.45844 2.57887
4 67.8875 5.431 -2.7155
1 66.0846 9.93939 -1.41434
4 69.2452 6.78875 -1.35775
1 70.463 8.30797 2.57727
4 73.3185 5.431 -2.7155
1 71.5409 9.81875 -1.28759
4 74.6762 6.78875 -1.35775
1 75.9711 8.23811 2.64573
4 78.7495 5.431 -2.7155
1 77.014 9.73695 -1.30512
4 80.1073 6.78875 -1.35775
1 81.2875 8.22752 2.65539
4 84.1805 5.431 -2.7155
1 82.5353 9.59269 -1.30925
4 85.5383 6.78875 -1.35775
1 86.8278 8.19627 2.57422
4 89.6115 5.431 -2.7155
1 88.0391 9.58196 -1.42932
4 90.9693 6.78875 -1.35775
1 92.1436 8.14348 2.65592
4 95.0425 5.431 -2.7155
1 93.4397 9.56113 -1.40589
4 96.4002 6.78875 -1.35775
1 97.655 8.18989 2.68325
4 100.474 5.431 -2.7155
1 99.0045 9.5368 -1.33924
4 101.831 6.78875 -1.35775
1 103.085 8.16126 2.70557
4 105.904 5.431 -2.7155
1 104.427 9.49836 -1.38354
4 107.262 6.78875 -1.35775
1 108.526 8.20593 -2.7094
5 0 24.4395 2.63198
5 2.7155 21.724 -2.66834
5 1.35775 25.7973 -1.41954
5 4.07325 23.0818 -1.41133
5 5.431 24.4395 2.69468
5 8.1465 21.724 2.65187
5 6.78875 25.7973 -1.37557
5 9.50425 23.0818 -1.35301
5 10.862 24.4395 -2.70665
5 13.5775 21.724 2.70071
5 12.2197 25.7973 -1.28115
5 14.9352 23.0818 -1.35625
5 16.293 24.4395 -2.66331
5 19.0085 21.724 -2.66278
5 17.6507 25.7973 -1.27732
5 20.3663 23.0818 -1.2992
5 21.724 24.4395 -2.66359
5 24.4395 21.724 -2.70287
5 23.0817 25.7973 -1.19674
5 25.7973 23.0818 -1.26974
5 27.155 24.4395 -2.59502
5 29.8705 21.724 -2.65836
5 28.5128 25.7973 -1.25159
5 31.2282 23.0818 -1.34759
5 32.586 24.4395 -2.65618
5 35.3015 21.724 2.69208
5 33.9438 25.7973 -1.36378
5 36.6593 23.0818 -1.41571
5 38.017 24.4395 2.63976
5 40.7325 21.724 2.70688
5 39.3747 25.7973 -1.47285
5 42.0902 23.0818 -1.3132
5 43.448 24.4395 -2.65676
5 46.1635 21.724 -2.63974
5 44.8058 25.7973 -1.32647
5 47.5213 23.0818 -1.28961
1 49.1109 24.0604 2.61786
1 52.6837 13.2156 0.575228
1 50.4319 24.7316 -0.824824
1 54.4155 13.9437 1.84626
1 52.8147 19.2065 0.048193
1 56.7997 11.278 2.18841
1 54.0859 17.3671 -1.00005
1 57.6059 12.6913 -1.52884
1 58.4773 14.7714 2.64283
1 61.8646 11.7557 2.55707
1 59.6368 16.5735 -1.35264
1 62.8818 13.2576 -1.33472
1 64.0661 14.8164 2.66252
1 67.2662 11.4877 2.60389
1 65.3757 16.248 -1.40812
1 68.4268 12.9044 -1.41394
1 69.6571 14.2597 2.61333
1 72.8423 11.3058 2.78339
1 70.9617 15.6454 -1.29989
1 73.9977 12.7049 -1.17002
1 75.321 14.1187 -2.64428
1 78.2246 11.1482 2.68124
1 76.5181 15.49 -1.27137
1 79.5265 12.569 -1.40303
1 80.851 13.9437 2.6387
1 83.7531 11.0503 -2.81922
1 82.1768 15.2976 -1.38516
1 85.0865 12.4568 -1.39809
1 86.4143 13.6768 2.58173
1 89.3475 10.9592 2.61595
1 87.7678 15.1041 -1.40005
1 90.6535 12.2721 -1.35059
1 91.935 13.6513 2.70872
1 94.8301 10.9066 2.71376
1 93.337 14.9506 -1.45713
1 96.1852 12.2523 -1.35321
1 97.5562 13.5358 2.64273
1 100.31 10.8286 2.71585
1 98.8875 14.8772 -1.40902
1 101.621 12.2035 -1.40525
1 102.986 13.4915 2.72436
1 105.743 10.8167 2.67169
1 104.31 14.888 -1.32695
1 107.024 12.2098 -1.39355
1 108.345 13.7056 -2.5607
5 0 29.8705 -2.68297
5 2.7155 27.155 2.66817
5 1.35775 31.2283 -1.35284
5 4.07325 28.5128 -1.38681
5 5.431 29.8705 -2.69603
5 8.1465 27.155 -2.67038
5 6.78875 31.2283 -1.36454
5 9.50425 28.5128 -1.3325
5 10.862 29.8705 -2.69503
5 13.5775 27.155 -2.67287
5 12.2197 31.2283 -1.38315
5 14.9352 28.5128 -1.25766
5 16.293 29.8705 -2.60809
5 19.0085 27.155 -2.61029
5 17.6507 31.2283 -1.26276
5 20.3663 28.5128 -1.26122
5 21.724 29.8705 -2.56915
5 24.4395 27.155 -2.60442
5 23.0817 31.2283 -1.29124
5 25.7973 28.5128 -1.27091
5 27.155 29.8705 -2.61904
5 29.8705 27.155 -2.60565
5 28.5128 31.2283 -1.34844
5 31.2282 28.5128 -1.27871
5 32.586 29.8705 -2.64748
5 35.3015 27.155 -2.70053
5 33.9438 31.2283 -1.25023
5 36.6593 28.5128 -1.34704
5 38.017 29.8705 2.67259
5 40.7325 27.155 2.63251
5 39.3747 31.2283 -1.36259
5 42.0902 28.5128 -1.39646
5 43.448 29.8705 2.68707
5 46.1635 27.155 2.71548
5 44.8058 31.2283 -1.35067
5 47.5213 28.5128 -1.28631
1 49.0356 29.4856 2.4818
1 51.6134 25.1356 2.23407
1 50.1712 30.1376 -0.981815
1 52.7989 25.9234 -0.968982
1 53.6874 26.01 1.33594
1 55.6735 18.6163 -2.30653
1 54.0934 27.8715 -2.12574
1 56.6304 20.2962 -0.785665
1 58.3363 21.6117 -2.35229
1 60.9507 18.1015 2.6963
1 59.5734 23.4048 -1.16527
1 62.3769 19.6807 -1.28484
1 63.7777 20.9676 -2.80333
1 66.7355 17.5185 2.60416
1 65.1628 22.253 -1.24949
1 68.0598 18.8588 -1.29486
1 69.4521 20.1619 -2.65925
1 72.2498 17.0325 -2.63272
1 70.733 21.3849 -1.08239
1 73.5311 18.413 -1.05722
1 74.8253 19.7347 -2.49496
1 77.8932 16.8615 -2.62047
1 76.2313 21.088 -1.15624
1 79.2121 18.1966 -1.22679
1 80.486 19.5055 -2.70261
1 83.4885 16.6139 -2.73366
1 81.8205 20.8311 -1.30421
1 84.7563 17.9352 -1.21983
1 86.0245 19.1225 2.65852
1 89.0938 16.368 2.65972
1 87.3772 20.389 -1.27053
1 90.4026 17.584 -1.34371
1 91.7052 18.9601 2.68971
1 94.6722 16.303 2.63445
1 92.9992 20.2278 -1.23062
1 95.8349 17.6399 -1.2854
1 97.206 18.9551 -2.59162
1 100.202 16.2471 2.67689
1 98.5148 20.1739 -1.12527
1 101.422 17.5255 -1.23166
1 102.774 18.8376 -2.57606
1 105.656 16.1986 -2.74719
1 104.128 20.1992 -1.16375
1 106.96 17.5244 -1.22663
1 108.375 18.7262 -2.641
5 0 35.3015 -2.60516
5 2.7155 32.586 -2.61144
5 1.35775 36.6593 -1.32667
5 4.07325 33.9438 -1.27164
5 5.431 35.3015 -2.60767
5 8.1465 32.586 2.70293
5 6.78875 36.6593 -1.25386
5 9.50425 33.9438 -1.3714
5 10.862 35.3015 2.66431
5 13.5775 32.586 2.68096
5 12.2197 36.6593 -1.34487
5 14.9352 33.9438 -1.40261
5 16.293 35.3015 -2.70308
5 19.0085 32.586 -2.61801
5 17.6507 36.6593 -1.35988
5 20.3663 33.9438 -1.29193
5 21.724 35.3015 -2.70039
5 24.4395 32.586 -2.65922
5 23.0817 36.6593 -1.33539
5 25.7973 33.9438 -1.31983
5 27.155 35.3015 -2.6812
5 29.8705 32.586 -2.66451
5 28.5128 36.6593 -1.28017
5 31.2282 33.9438 -1.31945
5 32.586 35.3015 -2.67376
5 35.3015 32.586 -2.61113
5 33.9438 36.6593 -1.32215
5 36.6593 33.9438 -1.33108
5 38.017 35.3015 -2.71374
5 40.7325 32.586 2.61908
5 39.3747 36.6593 -1.37859
5 42.0902 33.9438 -1.3818
5 43.448 35.3015 2.67422
5 46.1635 32.586 -2.68487
5 44.8058 36.6593 -1.30629
5 47.5213 33.9438 -1.37882
1 48.928 35.1199 2.52857
1 51.2896 30.8316 2.23553
1 50.2008 35.8497 -0.960263
1 52.284 31.4988 -1.06366
1 53.4946 32.2788 2.35653
1 55.82 25.24 2.37374
1 54.8956 32.1113 -0.883567
1 56.5148 27.1016 -1.25794
1 58.2111 28.276 -2.54913
1 60.89 24.6578 2.63555
1 59.698 29.6157 -1.07119
1 62.178 25.8279 -1.24432
1 63.6952 26.9432 -2.78172
1 66.5272 23.4856 2.73824
1 65.1502 28.2864 -1.35294
1 67.7789 24.7842 -1.23185
1 69.2478 26.0119 -2.67942
1 72.078 22.7885 -2.48544
1 70.6345 27.2834 -1.15878
1 73.4203 24.1615 -1.11284
1 74.8309 25.4955 -2.53781
1 77.5482 22.4745 -2.65501
1 76.2595 26.8741 -1.16945
1 78.991 23.7617 -1.23475
1 80.4122 25.0749 -2.65438
1 83.2813 22.1141 -2.65384
1 81.7827 26.3673 -1.12446
1 84.6704 23.3772 -1.18568
1 86.0468 24.7016 -2.44031
1 88.7927 21.7028 -2.60309
1 87.5172 25.9551 -1.10861
1 90.159 23.0757 -1.17846
1 91.5398 24.3251 -2.56253
1 94.3553 21.6159 -2.54079
1 92.8144 25.7249 -1.20022
1 95.6783 23.0392 -1.1971
1 97.1838 24.3069 -2.53479
1 100.023 21.4654 -2.43982
1 98.5258 25.5663 -1.08272
1 101.349 22.8593 -1.05123
1 102.62 24.1532 -2.45975
1 105.448 21.5285 -2.56057
1 104.021 25.5082 -1.23167
1 106.85 22.7596 -1.10157
1 108.221 24.0516 -2.51563
5 0 40.7325 -2.61255
5 2.7155 38.017 -2.65371
5 1.35775 42.0903 -1.27513
5 4.07325 39.3748 -1.30261
5 5.431 40.7325 -2.64002
5 8.1465 38.017 -2.59984
5 6.78875 42.0903 -1.3368
5 9.50425 39.3748 -1.27458
5 10.862 40.7325 -2.67215
5 13.5775 38.017 -2.69727
5 12.2197 42.0903 -1.34555
5 14.9352 39.3748 -1.32603
5 16.293 40.7325 -2.69421
5 19.0085 38.017 -2.66204
5 17.6507 42.0903 -1.3507
5 20.3663 39.3748 -1.34382
5 21.724 40.7325 -2.62154
5 24.4395 38.017 -2.65716
5 23.0817 42.0903 -1.2423
5 25.7973 39.3748 -1.32218
5 27.155 40.7325 -2.65781
5 29.8705 38.017 -2.61485
5 28.5128 42.0903 -1.29348
5 31.2282 39.3748 -1.28748
5 32.586 40.7325 2.67894
5 35.3015 38.017 2.69709
5 33.9438 42.0903 -1.35029
5 36.6593 39.3748 -1.40766
5 38.017 40.7325 -2.6921
5 40.7325 38.017 -2.68114
5 39.3747 42.0903 -1.34217
5 42.0902 39.3748 -1.32669
5 43.448 40.7325 -2.70833
5 46.1635 38.017 -2.69833
5 44.8058 42.0903 -1.35261
5 47.5213 39.3748 -1.25627
1 48.8059 40.4923 2.58404
1 51.1183 36.5604 2.30888
1 50.1617 41.2197 -0.89412
1 52.5029 36.7125 -0.949824
1 53.6861 37.259 2.34412
1 55.9943 32.6797 2.42064
1 54.734 37.9394 -0.872784
1 57.1012 33.5169 -0.948482
1 58.3948 34.668 -2.65831
1 61.1729 30.6913 -2.74419
1 59.9423 35.7568 -0.989632
1 62.5332 31.765 -1.13546
1 64.0306 33.0243 -2.59886
1 66.6847 29.5422 2.66379
1 65.4599 34.241 -1.08217
1 68.0463 30.7452 -1.18881
1 69.5396 31.9664 -2.54512
1 72.0891 28.7614 -2.5494
1 70.9687 33.245 -1.12232
1 73.5736 29.9206 -1.11259
1 74.8838 31.2512 -2.52511
1 77.7609 28.1379 -2.65018
1 76.3377 32.5865 -1.22599
1 79.0654 29.5414 -1.13344
1 80.5113 30.7578 -2.54497
1 83.3665 27.6597 -2.55985
1 81.9446 31.9668 -1.1535
1 84.7629 28.8332 -1.15548
1 86.1319 30.1726 -2.49813
1 88.8238 27.2782 -2.52665
1 87.5537 31.5442 -1.13727
1 90.1828 28.6651 -1.14936
1 91.5954 29.9422 -2.64087
1 94.2078 27.0929 -2.54044
1 92.9997 31.1791 -1.17962
1 95.7051 28.2563 -1.1642
1 97.2073 29.5026 -2.53455
1 99.8845 26.8573 -2.43937
1 98.6722 30.792 -1.11533
1 101.324 28.1823 -1.13272
1 102.802 29.3759 -2.47928
1 105.403 26.7105 -2.55797
1 104.108 30.6037 -1.04129
1 106.7 28.0068 -1.01025
1 108.08 29.358 -2.30168
5 0 46.1635 -2.63206
5 2.7155 43.448 -2.62245
5 1.35775 47.5213 -1.23887
5 4.07325 44.8058 -1.37622
5 5.431 46.1635 -2.70393
5 8.1465 43.448 -2.64732
5 6.78875 47.5213 -1.31106
5 9.50425 44.8058 -1.31103
5 10.862 46.1635 -2.71065
5 13.5775 43.448 -2.69663
5 12.2197 47.5213 -1.33369
5 14.9352 44.8058 -1.42543
5 16.293 46.1635 2.65473
5 19.0085 43.448 -2.70883
5 17.6507 47.5213 -1.40294
5 20.3663 44.8058 -1.3188
5 21.724 46.1635 -2.67508
5 24.4395 43.448 -2.635
5 23.0817 47.5213 -1.29482
5 25.7973 44.8058 -1.25273
5 27.155 46.1635 -2.64535
5 29.8705 43.448 -2.66406
5 28.5128 47.5213 -1.30055
5 31.2282 44.8058 -1.34962
5 32.586 46.1635 -2.65732
5 35.3015 43.448 2.68513
5 33.9438 47.5213 -1.29404
5 36.6593 44.8058 -1.30892
5 38.017 46.1635 -2.65154
5 40.7325 43.448 2.71404
5 39.3747 47.5213 -1.32387
5 42.0902 44.8058 -1.3825
5 43.448 46.1635 2.69512
5 46.1635 43.448 -2.68039
5 44.8058 47.5213 -1.31034
5 47.5213 44.8058 -1.29656
1 48.9039 45.7726 2.53554
1 51.4597 41.8137 2.40317
1 50.1633 46.5305 -1.04743
1 52.5162 42.498 -0.804694
1 53.5805 43.0749 2.562
1 56.0995 38.8559 -2.70838
1 55.1414 43.6717 -1.00445
1 57.5721 39.7212 -1.07416
1 59.065 40.6542 -2.6053
1 61.5712 36.7848 -2.41013
1 60.6021 41.6894 -1.05193
1 63.0943 37.9287 -1.04338
1 64.6032 38.9608 -2.58007
1 66.8695 35.3797 2.78951
1 66.108 40.1155 -1.16484
1 68.4992 36.6531 -1.35919
1 69.9739 37.9349 -2.68533
1 72.3245 34.517 -2.61944
1 71.3033 39.0534 -1.17722
1 73.8244 35.7827 -1.18895
1 75.3794 36.9072 -2.5846
1 77.8073 33.736 -2.7005
1 76.9384 38.2405 -1.27693
1 79.2746 34.931 -1.23464
1 80.7912 36.1881 -2.53318
1 83.4862 33.1769 -2.59572
1 82.3949 37.3328 -1.04276
1 84.9161 34.3901 -1.07643
1 86.3751 35.6923 -2.48856
1 88.923 32.8657 -2.51978
1 87.7965 36.9771 -1.16563
1 90.4648 34.1453 -1.23062
1 91.9351 35.3107 -2.593
1 94.648 32.3309 -2.48337
1 93.3884 36.5756 -1.21131
1 96.1007 33.5726 -1.08821
1 97.4675 35.0351 -2.42297
1 100.114 32.1287 -2.40576
1 98.8941 36.3654 -1.10382
1 101.541 33.4115 -1.0907
1 102.951 34.7068 -2.43484
1 105.412 32.0297 -2.29046
1 104.243 36.0557 -1.04934
1 106.829 33.1839 -0.862082
1 108.14 34.2622 -2.33422
5 0 51.5945 -2.7087
5 2.7155 48.879 -2.66017
5 1.35775 52.9523 -1.34666
5 4.07325 50.2368 -1.33436
5 5.431 51.5945 -2.70139
5 8.1465 48.879 2.67524
5 6.78875 52.9523 -1.38754
5 9.50425 50.2368 -1.33276
5 10.862 51.5945 2.70549
5 13.5775 48.879 2.70846
5 12.2197 52.9523 -1.36249
5 14.9352 50.2368 -1.42273
5 16.293 51.5945 2.63609
5 19.0085 48.879 2.69188
5 17.6507 52.9523 -1.39416
5 20.3663 50.2368 -1.36012
5 21.724 51.5945 -2.64803
5 24.4395 48.879 -2.61737
5 23.0817 52.9523 -1.29583
5 25.7973 50.2368 -1.29132
5 27.155 51.5945 -2.6977
5 29.8705 48.879 -2.6352
5 28.5128 52.9523 -1.33573
5 31.2282 50.2368 -1.2468
5 32.586 51.5945 2.70267
5 35.3015 48.879 -2.67157
5 33.9438 52.9523 -1.43523
5 36.6593 50.2368 -1.34332
5 38.017 51.5945 -2.70054
5 40.7325 48.879 -2.63009
5 39.3747 52.9523 -1.3665
5 42.0902 50.2368 -1.31323
5 43.448 51.5945 -2.69775
5 46.1635 48.879 -2.69548
5 44.8058 52.9523 -1.38377
5 47.5213 50.2368 -1.43507
1 48.9282 51.3055 2.52975
1 51.3971 47.2701 2.55952
1 50.3959 52.0905 -1.21414
1 52.757 48.0233 -1.17848
1 54.3665 48.7216 2.71239
1 56.6097 44.5611 -2.66644
1 55.7863 49.5806 -1.05125
1 58.1441 45.5009 -1.09683
1 59.705 46.3642 -2.62332
1 62.167 42.6201 -2.55178
1 61.2741 47.3788 -1.12441
1 63.6913 43.7142 -1.06124
1 65.1348 44.7706 -2.62493
1 67.5505 41.2427 -2.64847
1 66.6329 45.7617 -1.13513
1 69.0264 42.3756 -1.33532
1 70.5273 43.5051 -2.66486
1 72.8637 40.1352 -2.66855
1 71.8919 44.6936 -1.18733
1 74.3245 41.3042 -1.26913
1 75.9072 42.4366 -2.64445
1 78.3728 39.361 -2.62513
1 77.4203 43.6626 -1.21098
1 79.8704 40.4833 -1.17709
1 81.3343 41.774 -2.50621
1 83.9263 38.634 -2.48868
1 82.774 43.0437 -1.10345
1 85.2652 40.0115 -1.07858
1 86.798 41.1259 -2.46178
1 89.2644 38.2431 -2.56216
1 88.2995 42.3719 -1.04341
1 90.7072 39.404 -1.11816
1 92.1819 40.6233 -2.45657
1 94.7858 37.8698 -2.51083
1 93.6232 41.9601 -1.04803
1 96.1521 39.1417 -1.05711
1 97.5881 40.3999 -2.45623
1 100.371 37.6432 -2.52023
1 99.0998 41.57 -1.08224
1 101.714 38.8785 -1.07338
1 103.167 40.0612 -2.41977
1 105.861 37.2248 -2.28827
1 104.592 41.2291 -0.987388
1 107.32 38.4197 -0.895906
1 108.727 39.6692 -2.32702
5 0 57.0255 2.69626
5 2.7155 54.31 2.70377
5 1.35775 58.3833 -1.43462
5 4.07325 55.6678 -1.3614
5 5.431 57.0255 2.66903
5 8.1465 54.31 2.69325
5 6.78875 58.3833 -1.42813
5 9.50425 55.6678 -1.39917
5 10.862 57.0255 -2.69138
5 13.5775 54.31 2.6786
5 12.2197 58.3833 -1.32651
5 14.9352 55.6678 -1.41305
5 16.293 57.0255 2.68531
5 19.0085 54.31 2.6318
5 17.6507 58.3833 -1.37599
5 20.3663 55.6678 -1.34193
5 21.724 57.0255 -2.70744
5 24.4395 54.31 -2.69157
5 23.0817 58.3833 -1.42461
5 25.7973 55.6678 -1.32762
5 27.155 57.0255 -2.69109
5 29.8705 54.31 2.68948
5 28.5128 58.3833 -1.34445
5 31.2282 55.6678 -1.39488
5 32.586 57.0255 2.62298
5 35.3015 54.31 2.67038
5 33.9438 58.3833 -1.44312
5 36.6593 55.6678 -1.34959
5 38.017 57.0255 2.65295
5 40.7325 54.31 2.67151
5 39.3747 58.3833 -1.39945
5 42.0902 55.6678 -1.42137
5 43.448 57.0255 2.64212
5 46.1635 54.31 2.68335
5 44.8058 58.3833 -1.39413
5 47.5213 55.6678 -1.3556
1 49.0481 56.4843 2.49986
1 52.0068 52.8689 2.76685
1 50.6973 57.3693 -1.21331
1 53.4641 53.6328 -1.08549
1 55.1012 54.2119 2.77659
1 57.4018 50.3652 -2.6296
1 56.7249 54.8903 -1.05362
1 59.0105 51.1795 -1.04514
1 60.5653 52.0643 -2.47035
1 62.8995 48.3381 2.94308
1 62.2052 52.8438 -0.976183
1 64.431 49.3169 -1.07861
1 65.9962 50.2408 -2.58659
1 68.2519 46.8164 -2.50308
1 67.5051 51.2249 -0.981441
1 69.7744 47.9639 -1.03182
1 71.3052 48.9653 -2.49118
1 73.5725 45.7404 -2.54384
1 72.7836 50.1584 -1.09473
1 75.1094 46.8375 -1.1215
1 76.5508 48.0043 -2.58171
1 78.9015 44.8171 -2.57604
1 78.1126 49.15 -1.24414
1 80.3924 45.9672 -1.12809
1 81.9446 47.0894 -2.49624
1 84.4174 44.203 -2.52407
1 83.4852 48.2314 -1.13793
1 85.918 45.3661 -1.08724
1 87.3638 46.6546 -2.39842
1 89.6975 43.6328 -2.36543
1 88.8761 47.805 -1.06175
1 91.1816 44.8762 -1.07325
1 92.6889 46.2131 -2.47657
1 95.131 43.2426 -2.39718
1 94.1671 47.4291 -1.00573
1 96.549 44.5246 -1.07498
1 98.0868 45.727 -2.363
1 100.636 42.8337 -2.36838
1 99.5399 47.016 -1.00663
1 102.079 44.1576 -1.02111
1 103.601 45.4343 -2.33687
1 106.06 42.5729 -2.28612
1 105.098 46.6078 -1.02445
1 107.631 43.7858 -0.98725
1 109.014 44.9808 -2.46895
5 0 62.4565 2.57754
5 2.7155 59.741 2.64053
5 1.35775 63.8143 -1.64768
5 4.07325 61.0988 -1.50163
5 5.431 62.4565 2.56851
5 8.1465 59.741 2.62507
5 6.78875 63.8143 -1.42812
5 9.50425 61.0988 -1.37979
5 10.862 62.4565 -2.69272
5 13.5775 59.741 -2.66952
5 12.2197 63.8143 -1.39708
5 14.9352 61.0988 -1.43616
5 16.293 62.4565 -2.69633
5 19.0085 59.741 2.68719
5 17.6507 63.8143 -1.33896
5 20.3663 61.0988 -1.34394
5 21.724 62.4565 -2.69455
5 24.4395 59.741 2.68998
5 23.0817 63.8143 -1.26596
5 25.7973 61.0988 -1.39947
5 27.155 62.4565 2.63398
5 29.8705 59.741 2.63662
5 28.5128 63.8143 -1.50085
5 31.2282 61.0988 -1.47108
5 32.586 62.4565 2.6301
5 35.3015 59.741 2.61251
5 33.9438 63.8143 -1.50733
5 36.6593 61.0988 -1.47034
5 38.017 62.4565 2.59325
5 40.7325 59.741 2.62687
5 39.3747 63.8143 -1.5399
5 42.0902 61.0988 -1.42688
5 43.448 62.4565 2.68125
5 46.1635 59.741 -2.71417
5 44.8058 63.8143 -1.3795
5 47.5213 61.0988 -1.3201
1 50.0499 61.1773 -2.19233
1 52.5328 57.8321 -2.72753
1 51.6591 62.1625 -0.625863
1 54.2724 58.5846 -1.10185
1 56.0494 59.1403 -2.52919
1 58.4613 55.7161 -2.56039
1 57.8242 59.8414 -1.13578
1 60.0577 56.5497 -1.07069
1 61.7404 57.4431 -2.53334
1 63.8143 53.813 -2.36948
1 63.4232 58.258 -1.10813
1 65.4231 54.7812 -0.962137
1 66.9707 55.6643 -2.40401
1 69.0845 52.4133 -2.34093
1 68.6359 56.7119 -1.00925
1 70.7487 53.4404 -0.993504
1 72.3592 54.5855 -2.3783
1 74.3492 51.2112 -2.43592
1 73.9449 55.5447 -0.938748
1 75.9437 52.2612 -1.11775
1 77.5468 53.4081 -2.43502
1 79.7435 50.2813 -2.55998
1 79.0874 54.4925 -1.01428
1 81.2848 51.3709 -1.08721
1 82.7284 52.5069 -2.48573
1 84.921 49.4769 -2.47868
1 84.0921 53.7767 -1.11711
1 86.439 50.6806 -1.14576
1 87.9907 52.0376 -2.43393
1 90.2636 49.1274 -2.33464
1 89.4281 53.3583 -1.06397
1 91.7754 50.4359 -1.12822
1 93.2089 51.6186 -2.5565
1 95.581 48.6538 -2.48063
1 94.562 52.9099 -1.15699
1 97.0726 49.9448 -1.15179
1 98.572 51.1999 -2.45066
1 101.019 48.263 -2.32871
1 100.083 52.3136 -1.03817
1 102.514 49.5034 -0.940972
1 104.105 50.7533 -2.27727
1 106.59 47.7973 -2.42333
1 105.573 52.0428 -0.960268
1 108.05 49.056 -0.917657
1 109.509 50.3041 -2.18273
5 2.7155 65.172 2.54749
5 8.1465 65.172 2.64951
5 13.5775 65.172 -2.68338
5 19.0085 65.172 -2.68381
5 24.4395 65.172 -2.67579
5 29.8705 65.172 2.66759
5 35.3015 65.172 2.59217
5 40.7325 65.172 2.5164
5 46.1635 65.172 2.66036
1 53.8512 62.3581 -1.97161
1 59.6227 60.6652 -2.47892
1 65.1213 59.214 -2.34226
1 70.2539 57.7496 -2.41286
1 75.4616 56.5638 -2.23957
1 80.6734 55.624 -2.32171
1 85.4926 55.0031 -2.52558
1 90.6942 54.6067 -2.59991
1 95.9747 54.1411 -2.45898
1 101.575 53.6951 -2.2028
1 106.79 53.2935 -2.44565
5 0 10.862 0
5 2.7155 13.5775 0
5 1.35775 12.2197 1.35775
5 4.07325 14.9352 1.35775
5 5.431 10.862 0
5 8.1465 13.5775 0
5 6.78875 12.2197 1.35775
5 9.50425 14.9352 1.35775
5 10.862 10.862 0
5 13.5775 13.5775 0
5 12.2197 12.2197 1.35775
5 14.9352 14.9352 1.35775
5 16.293 10.862 0
5 19.0085 13.5775 0
5 17.6507 12.2197 1.35775
5 20.3663 14.9352 1.35775
5 21.724 10.862 0
5 24.4395 13.5775 0
5 23.0817 12.2197 1.35775
5 25.7973 14.9352 1.35775
5 27.155 10.862 0
5 29.8705 13.5775 0
5 28.5128 12.2197 1.35775
5 31.2282 14.9352 1.35775
5 32.586 10.862 0
5 35.3015 13.5775 0
5 33.9438 12.2197 1.35775
5 36.6593 14.9352 1.35775
5 38.017 10.862 0
5 40.7325 13.5775 0
5 39.3747 12.2197 1.35775
5 42.0902 14.9352 1.35775
5 43.448 10.862 0
5 46.1635 13.5775 0
5 44.8058 12.2197 1.35775
5 47.5213 14.9352 1.35775
4 48.879 0 0
4 51.5945 2.7155 0
4 50.2368 1.35775 1.35775
4 52.9522 4.07325 1.35775
4 54.31 0 0
4 57.0255 2.7155 0
4 55.6677 1.35775 1.35775
4 58.3833 4.07325 1.35775
4 59.741 0 0
4 62.4565 2.7155 0
4 61.0988 1.35775 1.35775
4 63.8143 4.07325 1.35775
4 65.172 0 0
4 67.8875 2.7155 0
4 66.5298 1.35775 1.35775
4 69.2452 4.07325 1.35775
4 70.603 0 0
4 73.3185 2.7155 0
4 71.9608 1.35775 1.35775
4 74.6762 4.07325 1.35775
4 76.034 0 0
4 78.7495 2.7155 0
4 77.3918 1.35775 1.35775
4 80.1073 4.07325 1.35775
4 81.465 0 0
4 84.1805 2.7155 0
4 82.8227 1.35775 1.35775
4 85.5383 4.07325 1.35775
4 86.896 0 0
4 89.6115 2.7155 0
4 88.2537 1.35775 1.35775
4 90.9693 4.07325 1.35775
4 92.327 0 0
4 95.0425 2.7155 0
4 93.6847 1.35775 1.35775
4 96.4002 4.07325 1.35775
4 97.758 0 0
4 100.474 2.7155 0
4 99.1158 1.35775 1.35775
4 101.831 4.07325 1.35775
4 103.189 0 0
4 105.904 2.7155 0
4 104.547 1.35775 1.35775
4 107.262 4.07325 1.35775
4 108.62 0 0
5 0 16.293 0
5 2.7155 19.0085 -0.030378
5 1.35775 17.6508 1.35775
5 4.07325 20.3663 1.31966
5 5.431 16.293 0
5 8.1465 19.0085 -0.00207584
5 6.78875 17.6508 1.35775
5 9.50425 20.3663 1.35242
5 10.862 16.293 0
5 13.5775 19.0085 -0.00491819
5 12.2197 17.6508 1.35775
5 14.9352 20.3663 1.31869
5 16.293 16.293 0
5 19.0085 19.0085 0.00290528
5 17.6507 17.6508 1.35775
5 20.3663 20.3663 1.35757
5 21.724 16.293 0
5 24.4395 19.0085 0.003671
5 23.0817 17.6508 1.35775
5 25.7973 20.3663 1.35541
5 27.155 16.293 0
5 29.8705 19.0085 0.0272404
5 28.5128 17.6508 1.35775
5 31.2282 20.3663 1.35189
5 32.586 16.293 0
5 35.3015 19.0085 0.00908262
5 33.9438 17.6508 1.35775
5 36.6593 20.3663 1.3219
5 38.017 16.293 0
5 40.7325 19.0085 0.0378749
5 39.3747 17.6508 1.35775
5 42.0902 20.3663 1.41817
5 43.448 16.293 0
5 46.1635 19.0085 0.0287579
5 44.8058 17.6508 1.35775
5 47.5213 20.3663 1.47408
4 48.879 5.431 0
1 51.6219 8.26378 0.0272271
4 50.2368 6.78875 1.35775
1 53.0025 9.81232 1.15313
4 54.31 5.431 0
1 56.8255 8.21621 -0.0927133
4 55.6677 6.78875 1.35775
1 58.2945 9.71722 1.14715
4 59.741 5.431 0
1 62.3024 8.36128 -0.193502
4 61.0988 6.78875 1.35775
1 63.3668 10.0419 1.2819
4 65.172 5.431 0
1 67.6916 8.31606 -0.106456
4 66.5298 6.78875 1.35775
1 68.9297 9.85393 1.38184
4 70.603 5.431 0
1 73.1485 8.35785 -0.13038
4 71.9608 6.78875 1.35775
1 74.3816 9.72844 1.48211
4 76.034 5.431 0
1 78.5294 8.27053 -0.0335334
4 77.3918 6.78875 1.35775
1 79.8108 9.70771 1.29308
4 81.465 5.431 0
1 84.0877 8.17074 -0.0333748
4 82.8227 6.78875 1.35775
1 85.3022 9.63874 1.32182
4 86.896 5.431 0
1 89.4779 8.23021 -0.0951799
4 88.2537 6.78875 1.35775
1 90.6864 9.53978 1.3172
4 92.327 5.431 0
1 94.9456 8.17055 -0.0873508
4 93.6847 6.78875 1.35775
1 96.2233 9.54726 1.33931
4 97.758 5.431 0
1 100.361 8.12381 -0.0555433
4 99.1158 6.78875 1.35775
1 101.662 9.45946 1.34767
4 103.189 5.431 0
1 105.863 8.11892 -0.0228762
4 104.547 6.78875 1.35775
1 107.107 9.49775 1.36076
4 108.62 5.431 0
5 0 21.724 -0.0123317
5 2.7155 24.4395 -0.0900773
5 1.35775 23.0818 1.31363
5 4.07325 25.7973 1.31552
5 5.431 21.724 -0.028277
5 8.1465 24.4395 0.0736872
5 6.78875 23.0818 1.35572
5 9.50425 25.7973 1.42897
5 10.862 21.724 -0.00815739
5 13.5775 24.4395 -0.00889917
5 12.2197 23.0818 1.39536
5 14.9352 25.7973 1.38529
5 16.293 21.724 0.0549538
5 19.0085 24.4395 0.0554889
5 17.6507 23.0818 1.37918
5 20.3663 25.7973 1.42657
5 21.724 21.724 0.0208951
5 24.4395 24.4395 0.114043
5 23.0817 23.0818 1.44745
5 25.7973 25.7973 1.4422
5 27.155 21.724 0.0476033
5 29.8705 24.4395 0.0464293
5 28.5128 23.0818 1.43601
5 31.2282 25.7973 1.44514
5 32.586 21.724 0.00606015
5 35.3015 24.4395 -0.0125542
5 33.9438 23.0818 1.32988
5 36.6593 25.7973 1.30038
5 38.017 21.724 -0.0451612
5 40.7325 24.4395 -0.0331181
5 39.3747 23.0818 1.29728
5 42.0902 25.7973 1.31001
5 43.448 21.724 0.0909414
5 46.1635 24.4395 0.049535
5 44.8058 23.0818 1.44404
5 47.5213 25.7973 1.35682
1 48.7364 21.2496 -0.468794
1 51.0689 22.3398 -0.131029
1 50.3067 21.8678 2.19501
1 52.3116 20.8486 -1.89574
1 54.0288 11.3346 -0.573341
1 55.5425 15.5831 0.1851
1 55.9247 12.8815 0.319059
1 56.9892 16.8474 1.66985
1 59.2552 11.3587 -0.102297
1 61.1735 14.959 -0.210787
1 60.0732 13.194 1.23123
1 62.5339 16.5556 1.29383
1 64.4974 11.6114 -0.116622
1 66.9892 14.5736 -0.12441
1 65.7149 13.2483 1.37514
1 68.2296 15.8889 1.40082
1 70.0583 11.3415 -0.142584
1 72.4657 14.29 -0.0390665
1 71.288 12.8134 1.37195
1 73.8692 15.558 1.5121
1 75.5573 11.2222 0.0139209
1 78.0149 14.02 -0.0126585
1 76.6877 12.6292 1.43076
1 79.2934 15.3531 1.39806
1 81.0589 11.1766 -0.0775056
1 83.6264 13.9082 -0.0938137
1 82.3839 12.585 1.32233
1 84.9494 15.1466 1.3025
1 86.5458 10.9189 -0.16342
1 89.1717 13.6722 -0.143751
1 87.8573 12.2379 1.2249
1 90.4303 14.9571 1.30511
1 92.066 10.9236 -0.016901
1 94.7044 13.5997 0.0111885
1 93.3535 12.2759 1.37565
1 96.118 14.9262 1.36807
1 97.5864 10.9028 -0.0653813
1 100.328 13.541 -0.0628274
1 98.9903 12.1582 1.26936
1 101.607 14.8573 1.41347
1 103.015 10.8634 -0.0165864
1 105.632 13.477 -0.0355904
1 104.399 12.1301 1.31949
1 107.048 14.8003 1.34024
1 108.405 10.7291 -0.117653
5 0 27.155 -0.0173586
5 2.7155 29.8705 -0.0570092
5 1.35775 28.5128 1.35192
5 4.07325 31.2283 1.36604
5 5.431 27.155 -0.0322161
5 8.1465 29.8705 -0.0570884
5 6.78875 28.5128 1.33234
5 9.50425 31.2283 1.3112
5 10.862 27.155 0.0309824
5 13.5775 29.8705 0.0204994
5 12.2197 28.5128 1.40551
5 14.9352 31.2283 1.37085
5 16.293 27.155 0.0443708
5 19.0085 29.8705 0.0781517
5 17.6507 28.5128 1.44641
5 20.3663 31.2283 1.49943
5 21.724 27.155 0.0729903
5 24.4395 29.8705 0.0643199
5 23.0817 28.5128 1.44338
5 25.7973 31.2283 1.43578
5 27.155 27.155 0.113391
5 29.8705 29.8705 0.0910919
5 28.5128 28.5128 1.44486
5 31.2282 31.2283 1.41612
5 32.586 27.155 0.0942093
5 35.3015 29.8705 0.134152
5 33.9438 28.5128 1.47964
5 36.6593 31.2283 1.48442
5 38.017 27.155 -0.0915324
5 40.7325 29.8705 -0.0843803
5 39.3747 28.5128 1.28708
5 42.0902 31.2283 1.31284
5 43.448 27.155 -0.0153745
5 46.1635 29.8705 -0.00254269
5 44.8058 28.5128 1.36298
5 47.5213 31.2283 1.37264
1 48.9666 26.6879 -0.234979
1 51.2488 27.9589 -0.315775
1 50.1826 27.2054 1.85272
1 52.3867 28.4141 1.76277
1 53.0619 23.752 0.530512
1 55.0642 21.9298 0.456637
1 54.1055 20.3268 1.94896
1 56.9884 23.2334 1.52451
1 58.1016 18.3019 -0.0149793
1 60.9305 21.5372 0.0240897
1 59.5835 19.9802 1.37012
1 62.35 22.7433 1.43741
1 63.9158 17.986 -0.178783
1 66.5845 20.5448 0.0615972
1 65.2529 19.1595 1.48145
1 67.9945 21.667 1.53818
1 69.5183 17.339 -0.034678
1 72.1625 19.9815 0.288976
1 70.7608 18.6067 1.57133
1 73.4582 21.3675 1.71765
1 75.0784 17.084 0.100275
1 77.6814 19.6257 0.155887
1 76.3821 18.3256 1.643
1 79.0353 21.0359 1.47435
1 80.6823 16.7298 0.0575615
1 83.2323 19.3495 -0.0124083
1 81.9298 18.1288 1.4316
1 84.5994 20.6378 1.42647
1 86.2477 16.4216 -0.156213
1 88.8864 19.0475 -0.0352846
1 87.5361 17.7254 1.40783
1 90.2155 20.3913 1.39745
1 91.8736 16.234 -0.0560389
1 94.4797 19.007 0.109274
1 93.1563 17.6227 1.37869
1 95.8083 20.3362 1.48759
1 97.3624 16.2135 -0.0255631
1 100.081 18.8176 0.208916
1 98.565 17.4798 1.4583
1 101.408 20.1887 1.59336
1 102.835 16.1978 0.0443968
1 105.615 18.8782 0.112962
1 104.125 17.5479 1.42789
1 106.921 20.1652 1.58623
1 108.398 16.1905 0.018224
5 0 32.586 0.0148145
5 2.7155 35.3015 0.104191
5 1.35775 33.9438 1.42655
5 4.07325 36.6593 1.46704
5 5.431 32.586 0.0198245
5 8.1465 35.3015 0.0958405
5 6.78875 33.9438 1.4123
5 9.50425 36.6593 1.37623
5 10.862 32.586 -0.0333202
5 13.5775 35.3015 -0.0406121