1661
 Atoms. Timestep: 0
5 0 2.7155 -2.7155
5 2.7155 0 -2.7155
5 1.35775 4.07325 -1.35775
5 4.07325 1.35775 -1.35775
5 5.431 2.7155 -2.7155
5 8.1465 0 -2.7155
5 6.78875 4.07325 -1.35775
5 9.50425 1.35775 -1.35775
5 10.862 2.7155 -2.7155
5 13.5775 0 -2.7155
5 12.2197 4.07325 -1.35775
5 14.9352 1.35775 -1.35775
5 16.293 2.7155 -2.7155
5 19.0085 0 -2.7155
5 17.6507 4.07325 -1.35775
5 20.3663 1.35775 -1.35775
5 21.724 2.7155 -2.7155
5 24.4395 0 -2.7155
5 23.0817 4.07325 -1.35775
5 25.7973 1.35775 -1.35775
5 27.155 2.7155 -2.7155
5 29.8705 0 -2.7155
5 28.5128 4.07325 -1.35775
5 31.2282 1.35775 -1.35775
5 32.586 2.7155 -2.7155
5 35.3015 0 -2.7155
5 33.9438 4.07325 -1.35775
5 36.6593 1.35775 -1.35775
5 38.017 2.7155 -2.7155
5 40.7325 0 -2.7155
5 39.3747 4.07325 -1.35775
5 42.0902 1.35775 -1.35775
5 43.448 2.7155 -2.7155
5 46.1635 0 -2.7155
5 44.8058 4.07325 -1.35775
5 47.5213 1.35775 -1.35775
4 48.879 2.7155 -2.7155
4 51.5945 0 -2.7155
4 50.2368 4.07325 -1.35775
4 52.9522 1.35775 -1.35775
4 54.31 2.7155 -2.7155
4 57.0255 0 -2.7155
4 55.6677 4.07325 -1.35775
4 58.3833 1.35775 -1.35775
4 59.741 2.7155 -2.7155
4 62.4565 0 -2.7155
4 61.0988 4.07325 -1.35775
4 63.8143 1.35775 -1.35775
4 65.172 2.7155 -2.7155
4 67.8875 0 -2.7155
4 66.5298 4.07325 -1.35775
4 69.2452 1.35775 -1.35775
4 70.603 2.7155 -2.7155
4 73.3185 0 -2.7155
4 71.9608 4.07325 -1.35775
4 74.6762 1.35775 -1.35775
4 76.034 2.7155 -2.7155
4 78.7495 0 -2.7155
4 77.3918 4.07325 -1.35775
4 80.1073 1.35775 -1.35775
4 81.465 2.7155 -2.7155
4 84.1805 0 -2.7155
4 82.8227 4.07325 -1.35775
4 85.5383 1.35775 -1.35775
4 86.896 2.7155 -2.7155
4 89.6115 0 -2.7155
4 88.2537 4.07325 -1.35775
4 90.9693 1.35775 -1.35775
4 92.327 2.7155 -2.7155
4 95.0425 0 -2.7155
4 93.6847 4.07325 -1.35775
4 96.4002 1.35775 -1.35775
4 97.758 2.7155 -2.7155
4 100.474 0 -2.7155
4 99.1158 4.07325 -1.35775
4 101.831 1.35775 -1.35775
4 103.189 2.7155 -2.7155
4 105.904 0 -2.7155
4 104.547 4.07325 -1.35775
4 107.262 1.35775 -1.35775
4 108.62 2.7155 -2.7155
5 0 8.1465 -2.7155
5 2.7155 5.431 -2.7155
5 1.35775 9.50425 -1.35775
5 4.07325 6.78875 -1.35775
5 5.431 8.1465 -2.7155
5 8.1465 5.431 -2.7155
5 6.78875 9.50425 -1.35775
5 9.50425 6.78875 -1.35775
5 10.862 8.1465 -2.7155
5 13.5775 5.431 -2.7155
5 12.2197 9.50425 -1.35775
5 14.9352 6.78875 -1.35775
5 16.293 8.1465 -2.7155
5 19.0085 5.431 -2.7155
5 17.6507 9.50425 -1.35775
5 20.3663 6.78875 -1.35775
5 21.724 8.1465 -2.7155
5 24.4395 5.431 -2.7155
5 23.0817 9.50425 -1.35775
5 25.7973 6.78875 -1.35775
5 27.155 8.1465 -2.7155
5 29.8705 5.431 -2.7155
5 28.5128 9.50425 -1.35775
5 31.2282 6.78875 -1.35775
5 32.586 8.1465 -2.7155
5 35.3015 5.431 -2.7155
5 33.9438 9.50425 -1.35775
5 36.6593 6.78875 -1.35775
5 38.017 8.1465 -2.7155
5 40.7325 5.431 -2.7155
5 39.3747 9.50425 -1.35775
5 42.0902 6.78875 -1.35775
5 43.448 8.1465 -2.7155
5 46.1635 5.431 -2.7155
5 44.8058 9.50425 -1.35775
5 47.5213 6.78875 -1.35775
1 48.879 8.1465 -2.7155
4 51.5945 5.431 -2.7155
1 50.2368 9.50425 -1.35775
4 52.9522 6.78875 -1.35775
1 54.31 8.1465 -2.7155
4 57.0255 5.431 -2.7155
1 55.6677 9.50425 -1.35775
4 58.3833 6.78875 -1.35775
1 59.741 8.1465 -2.7155
4 62.4565 5.431 -2.7155
1 61.0988 9.50425 -1.35775
4 63.8143 6.78875 -1.35775
1 65.172 8.1465 -2.7155
4 67.8875 5.431 -2.7155
1 66.5298 9.50425 -1.35775
4 69.2452 6.78875 -1.35775
1 70.603 8.1465 -2.7155
4 73.3185 5.431 -2.7155
1 71.9608 9.50425 -1.35775
4 74.6762 6.78875 -1.35775
1 76.034 8.1465 -2.7155
4 78.7495 5.431 -2.7155
1 77.3918 9.50425 -1.35775
4 80.1073 6.78875 -1.35775
1 81.465 8.1465 -2.7155
4 84.1805 5.431 -2.7155
1 82.8227 9.50425 -1.35775
4 85.5383 6.78875 -1.35775
1 86.896 8.1465 -2.7155
4 89.6115 5.431 -2.7155
1 88.2537 9.50425 -1.35775
4 90.9693 6.78875 -1.35775
1 92.327 8.1465 -2.7155
4 95.0425 5.431 -2.7155
1 93.6847 9.50425 -1.35775
4 96.4002 6.78875 -1.35775
1 97.758 8.1465 -2.7155
4 100.474 5.431 -2.7155
1 99.1158 9.50425 -1.35775
4 101.831 6.78875 -1.35775
1 103.189 8.1465 -2.7155
4 105.904 5.431 -2.7155
1 104.547 9.50425 -1.35775
4 107.262 6.78875 -1.35775
1 108.62 8.1465 -2.7155
5 0 13.5775 -2.7155
5 2.7155 10.862 -2.7155
5 1.35775 14.9352 -1.35775
5 4.07325 12.2197 -1.35775
5 5.431 13.5775 -2.7155
5 8.1465 10.862 -2.7155
5 6.78875 14.9352 -1.35775
5 9.50425 12.2197 -1.35775
5 10.862 13.5775 -2.7155
5 13.5775 10.862 -2.7155
5 12.2197 14.9352 -1.35775
5 14.9352 12.2197 -1.35775
5 16.293 13.5775 -2.7155
5 19.0085 10.862 -2.7155
5 17.6507 14.9352 -1.35775
5 20.3663 12.2197 -1.35775
5 21.724 13.5775 -2.7155
5 24.4395 10.862 -2.7155
5 23.0817 14.9352 -1.35775
5 25.7973 12.2197 -1.35775
5 27.155 13.5775 -2.7155
5 29.8705 10.862 -2.7155
5 28.5128 14.9352 -1.35775
5 31.2282 12.2197 -1.35775
5 32.586 13.5775 -2.7155
5 35.3015 10.862 -2.7155
5 33.9438 14.9352 -1.35775
5 36.6593 12.2197 -1.35775
5 38.017 13.5775 -2.7155
5 40.7325 10.862 -2.7155
5 39.3747 14.9352 -1.35775
5 42.0902 12.2197 -1.35775
5 43.448 13.5775 -2.7155
5 46.1635 10.862 -2.7155
5 44.8058 14.9352 -1.35775
5 47.5213 12.2197 -1.35775
1 48.879 13.5775 -2.7155
1 51.5945 10.862 -2.7155
1 50.2368 14.9352 -1.35775
1 52.9522 12.2197 -1.35775
1 54.31 13.5775 -2.7155
1 57.0255 10.862 -2.7155
1 55.6677 14.9352 -1.35775
1 58.3833 12.2197 -1.35775
1 59.741 13.5775 -2.7155
1 62.4565 10.862 -2.7155
1 61.0988 14.9352 -1.35775
1 63.8143 12.2197 -1.35775
1 65.172 13.5775 -2.7155
1 67.8875 10.862 -2.7155
1 66.5298 14.9352 -1.35775
1 69.2452 12.2197 -1.35775
1 70.603 13.5775 -2.7155
1 73.3185 10.862 -2.7155
1 71.9608 14.9352 -1.35775
1 74.6762 12.2197 -1.35775
1 76.034 13.5775 -2.7155
1 78.7495 10.862 -2.7155
1 77.3918 14.9352 -1.35775
1 80.1073 12.2197 -1.35775
1 81.465 13.5775 -2.7155
1 84.1805 10.862 -2.7155
1 82.8227 14.9352 -1.35775
1 85.5383 12.2197 -1.35775
1 86.896 13.5775 -2.7155
1 89.6115 10.862 -2.7155
1 88.2537 14.9352 -1.35775
1 90.9693 12.2197 -1.35775
1 92.327 13.5775 -2.7155
1 95.0425 10.862 -2.7155
1 93.6847 14.9352 -1.35775
1 96.4002 12.2197 -1.35775
1 97.758 13.5775 -2.7155
1 100.474 10.862 -2.7155
1 99.1158 14.9352 -1.35775
1 101.831 12.2197 -1.35775
1 103.189 13.5775 -2.7155
1 105.904 10.862 -2.7155
1 104.547 14.9352 -1.35775
1 107.262 12.2197 -1.35775
1 108.62 13.5775 -2.7155
5 0 19.0085 -2.7155
5 2.7155 16.293 -2.7155
5 1.35775 20.3663 -1.35775
5 4.07325 17.6507 -1.35775
5 5.431 19.0085 -2.7155
5 8.1465 16.293 -2.7155
5 6.78875 20.3663 -1.35775
5 9.50425 17.6507 -1.35775
5 10.862 19.0085 -2.7155
5 13.5775 16.293 -2.7155
5 12.2197 20.3663 -1.35775
5 14.9352 17.6507 -1.35775
5 16.293 19.0085 -2.7155
5 19.0085 16.293 -2.7155
5 17.6507 20.3663 -1.35775
5 20.3663 17.6507 -1.35775
5 21.724 19.0085 -2.7155
5 24.4395 16.293 -2.7155
5 23.0817 20.3663 -1.35775
5 25.7973 17.6507 -1.35775
5 27.155 19.0085 -2.7155
5 29.8705 16.293 -2.7155
5 28.5128 20.3663 -1.35775
5 31.2282 17.6507 -1.35775
5 32.586 19.0085 -2.7155
5 35.3015 16.293 -2.7155
5 33.9438 20.3663 -1.35775
5 36.6593 17.6507 -1.35775
5 38.017 19.0085 -2.7155
5 40.7325 16.293 -2.7155
5 39.3747 20.3663 -1.35775
5 42.0902 17.6507 -1.35775
5 43.448 19.0085 -2.7155
5 46.1635 16.293 -2.7155
5 44.8058 20.3663 -1.35775
5 47.5213 17.6507 -1.35775
1 48.879 19.0085 -2.7155
1 51.5945 16.293 -2.7155
1 50.2368 20.3663 -1.35775
1 52.9522 17.6507 -1.35775
1 54.31 19.0085 -2.7155
1 57.0255 16.293 -2.7155
1 55.6677 20.3663 -1.35775
1 58.3833 17.6507 -1.35775
1 59.741 19.0085 -2.7155
1 62.4565 16.293 -2.7155
1 61.0988 20.3663 -1.35775
1 63.8143 17.6507 -1.35775
1 65.172 19.0085 -2.7155
1 67.8875 16.293 -2.7155
1 66.5298 20.3663 -1.35775
1 69.2452 17.6507 -1.35775
1 70.603 19.0085 -2.7155
1 73.3185 16.293 -2.7155
1 71.9608 20.3663 -1.35775
1 74.6762 17.6507 -1.35775
1 76.034 19.0085 -2.7155
1 78.7495 16.293 -2.7155
1 77.3918 20.3663 -1.35775
1 80.1073 17.6507 -1.35775
1 81.465 19.0085 -2.7155
1 84.1805 16.293 -2.7155
1 82.8227 20.3663 -1.35775
1 85.5383 17.6507 -1.35775
1 86.896 19.0085 -2.7155
1 89.6115 16.293 -2.7155
1 88.2537 20.3663 -1.35775
1 90.9693 17.6507 -1.35775
1 92.327 19.0085 -2.7155
1 95.0425 16.293 -2.7155
1 93.6847 20.3663 -1.35775
1 96.4002 17.6507 -1.35775
1 97.758 19.0085 -2.7155
1 100.474 16.293 -2.7155
1 99.1158 20.3663 -1.35775
1 101.831 17.6507 -1.35775
1 103.189 19.0085 -2.7155
1 105.904 16.293 -2.7155
1 104.547 20.3663 -1.35775
1 107.262 17.6507 -1.35775
1 108.62 19.0085 -2.7155
5 0 24.4395 -2.7155
5 2.7155 21.724 -2.7155
5 1.35775 25.7973 -1.35775
5 4.07325 23.0817 -1.35775
5 5.431 24.4395 -2.7155
5 8.1465 21.724 -2.7155
5 6.78875 25.7973 -1.35775
5 9.50425 23.0817 -1.35775
5 10.862 24.4395 -2.7155
5 13.5775 21.724 -2.7155
5 12.2197 25.7973 -1.35775
5 14.9352 23.0817 -1.35775
5 16.293 24.4395 -2.7155
5 19.0085 21.724 -2.7155
5 17.6507 25.7973 -1.35775
5 20.3663 23.0817 -1.35775
5 21.724 24.4395 -2.7155
5 24.4395 21.724 -2.7155
5 23.0817 25.7973 -1.35775
5 25.7973 23.0817 -1.35775
5 27.155 24.4395 -2.7155
5 29.8705 21.724 -2.7155
5 28.5128 25.7973 -1.35775
5 31.2282 23.0817 -1.35775
5 32.586 24.4395 -2.7155
5 35.3015 21.724 -2.7155
5 33.9438 25.7973 -1.35775
5 36.6593 23.0817 -1.35775
5 38.017 24.4395 -2.7155
5 40.7325 21.724 -2.7155
5 39.3747 25.7973 -1.35775
5 42.0902 23.0817 -1.35775
5 43.448 24.4395 -2.7155
5 46.1635 21.724 -2.7155
5 44.8058 25.7973 -1.35775
5 47.5213 23.0817 -1.35775
1 48.879 24.4395 -2.7155
1 51.5945 21.724 -2.7155
1 50.2368 25.7973 -1.35775
1 52.9522 23.0817 -1.35775
1 54.31 24.4395 -2.7155
1 57.0255 21.724 -2.7155
1 55.6677 25.7973 -1.35775
1 58.3833 23.0817 -1.35775
1 59.741 24.4395 -2.7155
1 62.4565 21.724 -2.7155
1 61.0988 25.7973 -1.35775
1 63.8143 23.0817 -1.35775
1 65.172 24.4395 -2.7155
1 67.8875 21.724 -2.7155
1 66.5298 25.7973 -1.35775
1 69.2452 23.0817 -1.35775
1 70.603 24.4395 -2.7155
1 73.3185 21.724 -2.7155
1 71.9608 25.7973 -1.35775
1 74.6762 23.0817 -1.35775
1 76.034 24.4395 -2.7155
1 78.7495 21.724 -2.7155
1 77.3918 25.7973 -1.35775
1 80.1073 23.0817 -1.35775
1 81.465 24.4395 -2.7155
1 84.1805 21.724 -2.7155
1 82.8227 25.7973 -1.35775
1 85.5383 23.0817 -1.35775
1 86.896 24.4395 -2.7155
1 89.6115 21.724 -2.7155
1 88.2537 25.7973 -1.35775
1 90.9693 23.0817 -1.35775
1 92.327 24.4395 -2.7155
1 95.0425 21.724 -2.7155
1 93.6847 25.7973 -1.35775
1 96.4002 23.0817 -1.35775
1 97.758 24.4395 -2.7155
1 100.474 21.724 -2.7155
1 99.1158 25.7973 -1.35775
1 101.831 23.0817 -1.35775
1 103.189 24.4395 -2.7155
1 105.904 21.724 -2.7155
1 104.547 25.7973 -1.35775
1 107.262 23.0817 -1.35775
1 108.62 24.4395 -2.7155
5 0 29.8705 -2.7155
5 2.7155 27.155 -2.7155
5 1.35775 31.2282 -1.35775
5 4.07325 28.5128 -1.35775
5 5.431 29.8705 -2.7155
5 8.1465 27.155 -2.7155
5 6.78875 31.2282 -1.35775
5 9.50425 28.5128 -1.35775
5 10.862 29.8705 -2.7155
5 13.5775 27.155 -2.7155
5 12.2197 31.2282 -1.35775
5 14.9352 28.5128 -1.35775
5 16.293 29.8705 -2.7155
5 19.0085 27.155 -2.7155
5 17.6507 31.2282 -1.35775
5 20.3663 28.5128 -1.35775
5 21.724 29.8705 -2.7155
5 24.4395 27.155 -2.7155
5 23.0817 31.2282 -1.35775
5 25.7973 28.5128 -1.35775
5 27.155 29.8705 -2.7155
5 29.8705 27.155 -2.7155
5 28.5128 31.2282 -1.35775
5 31.2282 28.5128 -1.35775
5 32.586 29.8705 -2.7155
5 35.3015 27.155 -2.7155
5 33.9438 31.2282 -1.35775
5 36.6593 28.5128 -1.35775
5 38.017 29.8705 -2.7155
5 40.7325 27.155 -2.7155
5 39.3747 31.2282 -1.35775
5 42.0902 28.5128 -1.35775
5 43.448 29.8705 -2.7155
5 46.1635 27.155 -2.7155
5 44.8058 31.2282 -1.35775
5 47.5213 28.5128 -1.35775
1 48.879 29.8705 -2.7155
1 51.5945 27.155 -2.7155
1 50.2368 31.2282 -1.35775
1 52.9522 28.5128 -1.35775
1 54.31 29.8705 -2.7155
1 57.0255 27.155 -2.7155
1 55.6677 31.2282 -1.35775
1 58.3833 28.5128 -1.35775
1 59.741 29.8705 -2.7155
1 62.4565 27.155 -2.7155
1 61.0988 31.2282 -1.35775
1 63.8143 28.5128 -1.35775
1 65.172 29.8705 -2.7155
1 67.8875 27.155 -2.7155
1 66.5298 31.2282 -1.35775
1 69.2452 28.5128 -1.35775
1 70.603 29.8705 -2.7155
1 73.3185 27.155 -2.7155
1 71.9608 31.2282 -1.35775
1 74.6762 28.5128 -1.35775
1 76.034 29.8705 -2.7155
1 78.7495 27.155 -2.7155
1 77.3918 31.2282 -1.35775
1 80.1073 28.5128 -1.35775
1 81.465 29.8705 -2.7155
1 84.1805 27.155 -2.7155
1 82.8227 31.2282 -1.35775
1 85.5383 28.5128 -1.35775
1 86.896 29.8705 -2.7155
1 89.6115 27.155 -2.7155
1 88.2537 31.2282 -1.35775
1 90.9693 28.5128 -1.35775
1 92.327 29.8705 -2.7155
1 95.0425 27.155 -2.7155
1 93.6847 31.2282 -1.35775
1 96.4002 28.5128 -1.35775
1 97.758 29.8705 -2.7155
1 100.474 27.155 -2.7155
1 99.1158 31.2282 -1.35775
1 101.831 28.5128 -1.35775
1 103.189 29.8705 -2.7155
1 105.904 27.155 -2.7155
1 104.547 31.2282 -1.35775
1 107.262 28.5128 -1.35775
1 108.62 29.8705 -2.7155
5 0 35.3015 -2.7155
5 2.7155 32.586 -2.7155
5 1.35775 36.6593 -1.35775
5 4.07325 33.9438 -1.35775
5 5.431 35.3015 -2.7155
5 8.1465 32.586 -2.7155
5 6.78875 36.6593 -1.35775
5 9.50425 33.9438 -1.35775
5 10.862 35.3015 -2.7155
5 13.5775 32.586 -2.7155
5 12.2197 36.6593 -1.35775
5 14.9352 33.9438 -1.35775
5 16.293 35.3015 -2.7155
5 19.0085 32.586 -2.7155
5 17.6507 36.6593 -1.35775
5 20.3663 33.9438 -1.35775
5 21.724 35.3015 -2.7155
5 24.4395 32.586 -2.7155
5 23.0817 36.6593 -1.35775
5 25.7973 33.9438 -1.35775
5 27.155 35.3015 -2.7155
5 29.8705 32.586 -2.7155
5 28.5128 36.6593 -1.35775
5 31.2282 33.9438 -1.35775
5 32.586 35.3015 -2.7155
5 35.3015 32.586 -2.7155
5 33.9438 36.6593 -1.35775
5 36.6593 33.9438 -1.35775
5 38.017 35.3015 -2.7155
5 40.7325 32.586 -2.7155
5 39.3747 36.6593 -1.35775
5 42.0902 33.9438 -1.35775
5 43.448 35.3015 -2.7155
5 46.1635 32.586 -2.7155
5 44.8058 36.6593 -1.35775
5 47.5213 33.9438 -1.35775
1 48.879 35.3015 -2.7155
1 51.5945 32.586 -2.7155
1 50.2368 36.6593 -1.35775
1 52.9522 33.9438 -1.35775
1 54.31 35.3015 -2.7155
1 57.0255 32.586 -2.7155
1 55.6677 36.6593 -1.35775
1 58.3833 33.9438 -1.35775
1 59.741 35.3015 -2.7155
1 62.4565 32.586 -2.7155
1 61.0988 36.6593 -1.35775
1 63.8143 33.9438 -1.35775
1 65.172 35.3015 -2.7155
1 67.8875 32.586 -2.7155
1 66.5298 36.6593 -1.35775
1 69.2452 33.9438 -1.35775
1 70.603 35.3015 -2.7155
1 73.3185 32.586 -2.7155
1 71.9608 36.6593 -1.35775
1 74.6762 33.9438 -1.35775
1 76.034 35.3015 -2.7155
1 78.7495 32.586 -2.7155
1 77.3918 36.6593 -1.35775
1 80.1073 33.9438 -1.35775
1 81.465 35.3015 -2.7155
1 84.1805 32.586 -2.7155
1 82.8227 36.6593 -1.35775
1 85.5383 33.9438 -1.35775
1 86.896 35.3015 -2.7155
1 89.6115 32.586 -2.7155
1 88.2537 36.6593 -1.35775
1 90.9693 33.9438 -1.35775
1 92.327 35.3015 -2.7155
1 95.0425 32.586 -2.7155
1 93.6847 36.6593 -1.35775
1 96.4002 33.9438 -1.35775
1 97.758 35.3015 -2.7155
1 100.474 32.586 -2.7155
1 99.1158 36.6593 -1.35775
1 101.831 33.9438 -1.35775
1 103.189 35.3015 -2.7155
1 105.904 32.586 -2.7155
1 104.547 36.6593 -1.35775
1 107.262 33.9438 -1.35775
1 108.62 35.3015 -2.7155
5 0 40.7325 -2.7155
5 2.7155 38.017 -2.7155
5 1.35775 42.0902 -1.35775
5 4.07325 39.3747 -1.35775
5 5.431 40.7325 -2.7155
5 8.1465 38.017 -2.7155
5 6.78875 42.0902 -1.35775
5 9.50425 39.3747 -1.35775
5 10.862 40.7325 -2.7155
5 13.5775 38.017 -2.7155
5 12.2197 42.0902 -1.35775
5 14.9352 39.3747 -1.35775
5 16.293 40.7325 -2.7155
5 19.0085 38.017 -2.7155
5 17.6507 42.0902 -1.35775
5 20.3663 39.3747 -1.35775
5 21.724 40.7325 -2.7155
5 24.4395 38.017 -2.7155
5 23.0817 42.0902 -1.35775
5 25.7973 39.3747 -1.35775
5 27.155 40.7325 -2.7155
5 29.8705 38.017 -2.7155
5 28.5128 42.0902 -1.35775
5 31.2282 39.3747 -1.35775
5 32.586 40.7325 -2.7155
5 35.3015 38.017 -2.7155
5 33.9438 42.0902 -1.35775
5 36.6593 39.3747 -1.35775
5 38.017 40.7325 -2.7155
5 40.7325 38.017 -2.7155
5 39.3747 42.0902 -1.35775
5 42.0902 39.3747 -1.35775
5 43.448 40.7325 -2.7155
5 46.1635 38.017 -2.7155
5 44.8058 42.0902 -1.35775
5 47.5213 39.3747 -1.35775
1 48.879 40.7325 -2.7155
1 51.5945 38.017 -2.7155
1 50.2368 42.0902 -1.35775
1 52.9522 39.3747 -1.35775
1 54.31 40.7325 -2.7155
1 57.0255 38.017 -2.7155
1 55.6677 42.0902 -1.35775
1 58.3833 39.3747 -1.35775
1 59.741 40.7325 -2.7155
1 62.4565 38.017 -2.7155
1 61.0988 42.0902 -1.35775
1 63.8143 39.3747 -1.35775
1 65.172 40.7325 -2.7155
1 67.8875 38.017 -2.7155
1 66.5298 42.0902 -1.35775
1 69.2452 39.3747 -1.35775
1 70.603 40.7325 -2.7155
1 73.3185 38.017 -2.7155
1 71.9608 42.0902 -1.35775
1 74.6762 39.3747 -1.35775
1 76.034 40.7325 -2.7155
1 78.7495 38.017 -2.7155
1 77.3918 42.0902 -1.35775
1 80.1073 39.3747 -1.35775
1 81.465 40.7325 -2.7155
1 84.1805 38.017 -2.7155
1 82.8227 42.0902 -1.35775
1 85.5383 39.3747 -1.35775
1 86.896 40.7325 -2.7155
1 89.6115 38.017 -2.7155
1 88.2537 42.0902 -1.35775
1 90.9693 39.3747 -1.35775
1 92.327 40.7325 -2.7155
1 95.0425 38.017 -2.7155
1 93.6847 42.0902 -1.35775
1 96.4002 39.3747 -1.35775
1 97.758 40.7325 -2.7155
1 100.474 38.017 -2.7155
1 99.1158 42.0902 -1.35775
1 101.831 39.3747 -1.35775
1 103.189 40.7325 -2.7155
1 105.904 38.017 -2.7155
1 104.547 42.0902 -1.35775
1 107.262 39.3747 -1.35775
1 108.62 40.7325 -2.7155
5 0 46.1635 -2.7155
5 2.7155 43.448 -2.7155
5 1.35775 47.5213 -1.35775
5 4.07325 44.8058 -1.35775
5 5.431 46.1635 -2.7155
5 8.1465 43.448 -2.7155
5 6.78875 47.5213 -1.35775
5 9.50425 44.8058 -1.35775
5 10.862 46.1635 -2.7155
5 13.5775 43.448 -2.7155
5 12.2197 47.5213 -1.35775
5 14.9352 44.8058 -1.35775
5 16.293 46.1635 -2.7155
5 19.0085 43.448 -2.7155
5 17.6507 47.5213 -1.35775
5 20.3663 44.8058 -1.35775
5 21.724 46.1635 -2.7155
5 24.4395 43.448 -2.7155
5 23.0817 47.5213 -1.35775
5 25.7973 44.8058 -1.35775
5 27.155 46.1635 -2.7155
5 29.8705 43.448 -2.7155
5 28.5128 47.5213 -1.35775
5 31.2282 44.8058 -1.35775
5 32.586 46.1635 -2.7155
5 35.3015 43.448 -2.7155
5 33.9438 47.5213 -1.35775
5 36.6593 44.8058 -1.35775
5 38.017 46.1635 -2.7155
5 40.7325 43.448 -2.7155
5 39.3747 47.5213 -1.35775
5 42.0902 44.8058 -1.35775
5 43.448 46.1635 -2.7155
5 46.1635 43.448 -2.7155
5 44.8058 47.5213 -1.35775
5 47.5213 44.8058 -1.35775
1 48.879 46.1635 -2.7155
1 51.5945 43.448 -2.7155
1 50.2368 47.5213 -1.35775
1 52.9522 44.8058 -1.35775
1 54.31 46.1635 -2.7155
1 57.0255 43.448 -2.7155
1 55.6677 47.5213 -1.35775
1 58.3833 44.8058 -1.35775
1 59.741 46.1635 -2.7155
1 62.4565 43.448 -2.7155
1 61.0988 47.5213 -1.35775
1 63.8143 44.8058 -1.35775
1 65.172 46.1635 -2.7155
1 67.8875 43.448 -2.7155
1 66.5298 47.5213 -1.35775
1 69.2452 44.8058 -1.35775
1 70.603 46.1635 -2.7155
1 73.3185 43.448 -2.7155
1 71.9608 47.5213 -1.35775
1 74.6762 44.8058 -1.35775
1 76.034 46.1635 -2.7155
1 78.7495 43.448 -2.7155
1 77.3918 47.5213 -1.35775
1 80.1073 44.8058 -1.35775
1 81.465 46.1635 -2.7155
1 84.1805 43.448 -2.7155
1 82.8227 47.5213 -1.35775
1 85.5383 44.8058 -1.35775
1 86.896 46.1635 -2.7155
1 89.6115 43.448 -2.7155
1 88.2537 47.5213 -1.35775
1 90.9693 44.8058 -1.35775
1 92.327 46.1635 -2.7155
1 95.0425 43.448 -2.7155
1 93.6847 47.5213 -1.35775
1 96.4002 44.8058 -1.35775
1 97.758 46.1635 -2.7155
1 100.474 43.448 -2.7155
1 99.1158 47.5213 -1.35775
1 101.831 44.8058 -1.35775
1 103.189 46.1635 -2.7155
1 105.904 43.448 -2.7155
1 104.547 47.5213 -1.35775
1 107.262 44.8058 -1.35775
1 108.62 46.1635 -2.7155
5 0 51.5945 -2.7155
5 2.7155 48.879 -2.7155
5 1.35775 52.9522 -1.35775
5 4.07325 50.2368 -1.35775
5 5.431 51.5945 -2.7155
5 8.1465 48.879 -2.7155
5 6.78875 52.9522 -1.35775
5 9.50425 50.2368 -1.35775
5 10.862 51.5945 -2.7155
5 13.5775 48.879 -2.7155
5 12.2197 52.9522 -1.35775
5 14.9352 50.2368 -1.35775
5 16.293 51.5945 -2.7155
5 19.0085 48.879 -2.7155
5 17.6507 52.9522 -1.35775
5 20.3663 50.2368 -1.35775
5 21.724 51.5945 -2.7155
5 24.4395 48.879 -2.7155
5 23.0817 52.9522 -1.35775
5 25.7973 50.2368 -1.35775
5 27.155 51.5945 -2.7155
5 29.8705 48.879 -2.7155
5 28.5128 52.9522 -1.35775
5 31.2282 50.2368 -1.35775
5 32.586 51.5945 -2.7155
5 35.3015 48.879 -2.7155
5 33.9438 52.9522 -1.35775
5 36.6593 50.2368 -1.35775
5 38.017 51.5945 -2.7155
5 40.7325 48.879 -2.7155
5 39.3747 52.9522 -1.35775
5 42.0902 50.2368 -1.35775
5 43.448 51.5945 -2.7155
5 46.1635 48.879 -2.7155
5 44.8058 52.9522 -1.35775
5 47.5213 50.2368 -1.35775
1 48.879 51.5945 -2.7155
1 51.5945 48.879 -2.7155
1 50.2368 52.9522 -1.35775
1 52.9522 50.2368 -1.35775
1 54.31 51.5945 -2.7155
1 57.0255 48.879 -2.7155
1 55.6677 52.9522 -1.35775
1 58.3833 50.2368 -1.35775
1 59.741 51.5945 -2.7155
1 62.4565 48.879 -2.7155
1 61.0988 52.9522 -1.35775
1 63.8143 50.2368 -1.35775
1 65.172 51.5945 -2.7155
1 67.8875 48.879 -2.7155
1 66.5298 52.9522 -1.35775
1 69.2452 50.2368 -1.35775
1 70.603 51.5945 -2.7155
1 73.3185 48.879 -2.7155
1 71.9608 52.9522 -1.35775
1 74.6762 50.2368 -1.35775
1 76.034 51.5945 -2.7155
1 78.7495 48.879 -2.7155
1 77.3918 52.9522 -1.35775
1 80.1073 50.2368 -1.35775
1 81.465 51.5945 -2.7155
1 84.1805 48.879 -2.7155
1 82.8227 52.9522 -1.35775
1 85.5383 50.2368 -1.35775
1 86.896 51.5945 -2.7155
1 89.6115 48.879 -2.7155
1 88.2537 52.9522 -1.35775
1 90.9693 50.2368 -1.35775
1 92.327 51.5945 -2.7155
1 95.0425 48.879 -2.7155
1 93.6847 52.9522 -1.35775
1 96.4002 50.2368 -1.35775
1 97.758 51.5945 -2.7155
1 100.474 48.879 -2.7155
1 99.1158 52.9522 -1.35775
1 101.831 50.2368 -1.35775
1 103.189 51.5945 -2.7155
1 105.904 48.879 -2.7155
1 104.547 52.9522 -1.35775
1 107.262 50.2368 -1.35775
1 108.62 51.5945 -2.7155
5 2.7155 54.31 -2.7155
5 8.1465 54.31 -2.7155
5 13.5775 54.31 -2.7155
5 19.0085 54.31 -2.7155
5 24.4395 54.31 -2.7155
5 29.8705 54.31 -2.7155
5 35.3015 54.31 -2.7155
5 40.7325 54.31 -2.7155
5 46.1635 54.31 -2.7155
1 51.5945 54.31 -2.7155
1 57.0255 54.31 -2.7155
1 62.4565 54.31 -2.7155
1 67.8875 54.31 -2.7155
1 73.3185 54.31 -2.7155
1 78.7495 54.31 -2.7155
1 84.1805 54.31 -2.7155
1 89.6115 54.31 -2.7155
1 95.0425 54.31 -2.7155
1 100.474 54.31 -2.7155
1 105.904 54.31 -2.7155
5 0 0 0
5 2.7155 2.7155 0
5 1.35775 1.35775 1.35775
5 4.07325 4.07325 1.35775
5 5.431 0 0
5 8.1465 2.7155 0
5 6.78875 1.35775 1.35775
5 9.50425 4.07325 1.35775
5 10.862 0 0
5 13.5775 2.7155 0
5 12.2197 1.35775 1.35775
5 14.9352 4.07325 1.35775
5 16.293 0 0
5 19.0085 2.7155 0
5 17.6507 1.35775 1.35775
5 20.3663 4.07325 1.35775
5 21.724 0 0
5 24.4395 2.7155 0
5 23.0817 1.35775 1.35775
5 25.7973 4.07325 1.35775
5 27.155 0 0
5 29.8705 2.7155 0
5 28.5128 1.35775 1.35775
5 31.2282 4.07325 1.35775
5 32.586 0 0
5 35.3015 2.7155 0
5 33.9438 1.35775 1.35775
5 36.6593 4.07325 1.35775
5 38.017 0 0
5 40.7325 2.7155 0
5 39.3747 1.35775 1.35775
5 42.0902 4.07325 1.35775
5 43.448 0 0
5 46.1635 2.7155 0
5 44.8058 1.35775 1.35775
5 47.5213 4.07325 1.35775
4 48.879 0 0
4 51.5945 2.7155 0
4 50.2368 1.35775 1.35775
4 52.9522 4.07325 1.35775
4 54.31 0 0
4 57.0255 2.7155 0
4 55.6677 1.35775 1.35775
4 58.3833 4.07325 1.35775
4 59.741 0 0
4 62.4565 2.7155 0
4 61.0988 1.35775 1.35775
4 63.8143 4.07325 1.35775
4 65.172 0 0
4 67.8875 2.7155 0
4 66.5298 1.35775 1.35775
4 69.2452 4.07325 1.35775
4 70.603 0 0
4 73.3185 2.7155 0
4 71.9608 1.35775 1.35775
4 74.6762 4.07325 1.35775
4 76.034 0 0
4 78.7495 2.7155 0
4 77.3918 1.35775 1.35775
4 80.1073 4.07325 1.35775
4 81.465 0 0
4 84.1805 2.7155 0
4 82.8227 1.35775 1.35775
4 85.5383 4.07325 1.35775
4 86.896 0 0
4 89.6115 2.7155 0
4 88.2537 1.35775 1.35775
4 90.9693 4.07325 1.35775
4 92.327 0 0
4 95.0425 2.7155 0
4 93.6847 1.35775 1.35775
4 96.4002 4.07325 1.35775
4 97.758 0 0
4 100.474 2.7155 0
4 99.1158 1.35775 1.35775
4 101.831 4.07325 1.35775
4 103.189 0 0
4 105.904 2.7155 0
4 104.547 1.35775 1.35775
4 107.262 4.07325 1.35775
4 108.62 0 0
5 0 5.431 0
5 2.7155 8.1465 0
5 1.35775 6.78875 1.35775
5 4.07325 9.50425 1.35775
5 5.431 5.431 0
5 8.1465 8.1465 0
5 6.78875 6.78875 1.35775
5 9.50425 9.50425 1.35775
5 10.862 5.431 0
5 13.5775 8.1465 0
5 12.2197 6.78875 1.35775
5 14.9352 9.50425 1.35775
5 16.293 5.431 0
5 19.0085 8.1465 0
5 17.6507 6.78875 1.35775
5 20.3663 9.50425 1.35775
5 21.724 5.431 0
5 24.4395 8.1465 0
5 23.0817 6.78875 1.35775
5 25.7973 9.50425 1.35775
5 27.155 5.431 0
5 29.8705 8.1465 0
5 28.5128 6.78875 1.35775
5 31.2282 9.50425 1.35775
5 32.586 5.431 0
5 35.3015 8.1465 0
5 33.9438 6.78875 1.35775
5 36.6593 9.50425 1.35775
5 38.017 5.431 0
5 40.7325 8.1465 0
5 39.3747 6.78875 1.35775
5 42.0902 9.50425 1.35775
5 43.448 5.431 0
5 46.1635 8.1465 0
5 44.8058 6.78875 1.35775
5 47.5213 9.50425 1.35775
4 48.879 5.431 0
1 51.5945 8.1465 0
4 50.2368 6.78875 1.35775
1 52.9522 9.50425 1.35775
4 54.31 5.431 0
1 57.0255 8.1465 0
4 55.6677 6.78875 1.35775
1 58.3833 9.50425 1.35775
4 59.741 5.431 0
1 62.4565 8.1465 0
4 61.0988 6.78875 1.35775
1 63.8143 9.50425 1.35775
4 65.172 5.431 0
1 67.8875 8.1465 0
4 66.5298 6.78875 1.35775
1 69.2452 9.50425 1.35775
4 70.603 5.431 0
1 73.3185 8.1465 0
4 71.9608 6.78875 1.35775
1 74.6762 9.50425 1.35775
4 76.034 5.431 0
1 78.7495 8.1465 0
4 77.3918 6.78875 1.35775
1 80.1073 9.50425 1.35775
4 81.465 5.431 0
1 84.1805 8.1465 0
4 82.8227 6.78875 1.35775
1 85.5383 9.50425 1.35775
4 86.896 5.431 0
1 89.6115 8.1465 0
4 88.2537 6.78875 1.35775
1 90.9693 9.50425 1.35775
4 92.327 5.431 0
1 95.0425 8.1465 0
4 93.6847 6.78875 1.35775
1 96.4002 9.50425 1.35775
4 97.758 5.431 0
1 100.474 8.1465 0
4 99.1158 6.78875 1.35775
1 101.831 9.50425 1.35775
4 103.189 5.431 0
1 105.904 8.1465 0
4 104.547 6.78875 1.35775
1 107.262 9.50425 1.35775
4 108.62 5.431 0
5 0 10.862 0
5 2.7155 13.5775 0
5 1.35775 12.2197 1.35775
5 4.07325 14.9352 1.35775
5 5.431 10.862 0
5 8.1465 13.5775 0
5 6.78875 12.2197 1.35775
5 9.50425 14.9352 1.35775
5 10.862 10.862 0
5 13.5775 13.5775 0
5 12.2197 12.2197 1.35775
5 14.9352 14.9352 1.35775
5 16.293 10.862 0
5 19.0085 13.5775 0
5 17.6507 12.2197 1.35775
5 20.3663 14.9352 1.35775
5 21.724 10.862 0
5 24.4395 13.5775 0
5 23.0817 12.2197 1.35775
5 25.7973 14.9352 1.35775
5 27.155 10.862 0
5 29.8705 13.5775 0
5 28.5128 12.2197 1.35775
5 31.2282 14.9352 1.35775
5 32.586 10.862 0
5 35.3015 13.5775 0
5 33.9438 12.2197 1.35775
5 36.6593 14.9352 1.35775
5 38.017 10.862 0
5 40.7325 13.5775 0
5 39.3747 12.2197 1.35775
5 42.0902 14.9352 1.35775
5 43.448 10.862 0
5 46.1635 13.5775 0
5 44.8058 12.2197 1.35775
5 47.5213 14.9352 1.35775
1 48.879 10.862 0
1 51.5945 13.5775 0
1 50.2368 12.2197 1.35775
1 52.9522 14.9352 1.35775
1 54.31 10.862 0
1 57.0255 13.5775 0
1 55.6677 12.2197 1.35775
1 58.3833 14.9352 1.35775
1 59.741 10.862 0
1 62.4565 13.5775 0
1 61.0988 12.2197 1.35775
1 63.8143 14.9352 1.35775
1 65.172 10.862 0
1 67.8875 13.5775 0
1 66.5298 12.2197 1.35775
1 69.2452 14.9352 1.35775
1 70.603 10.862 0
1 73.3185 13.5775 0
1 71.9608 12.2197 1.35775
1 74.6762 14.9352 1.35775
1 76.034 10.862 0
1 78.7495 13.5775 0
1 77.3918 12.2197 1.35775
1 80.1073 14.9352 1.35775
1 81.465 10.862 0
1 84.1805 13.5775 0
1 82.8227 12.2197 1.35775
1 85.5383 14.9352 1.35775
1 86.896 10.862 0
1 89.6115 13.5775 0
1 88.2537 12.2197 1.35775
1 90.9693 14.9352 1.35775
1 92.327 10.862 0
1 95.0425 13.5775 0
1 93.6847 12.2197 1.35775
1 96.4002 14.9352 1.35775
1 97.758 10.862 0
1 100.474 13.5775 0
1 99.1158 12.2197 1.35775
1 101.831 14.9352 1.35775
1 103.189 10.862 0
1 105.904 13.5775 0
1 104.547 12.2197 1.35775
1 107.262 14.9352 1.35775
1 108.62 10.862 0
5 0 16.293 0
5 2.7155 19.0085 0
5 1.35775 17.6507 1.35775
5 4.07325 20.3663 1.35775
5 5.431 16.293 0
5 8.1465 19.0085 0
5 6.78875 17.6507 1.35775
5 9.50425 20.3663 1.35775
5 10.862 16.293 0
5 13.5775 19.0085 0
5 12.2197 17.6507 1.35775
5 14.9352 20.3663 1.35775
5 16.293 16.293 0
5 19.0085 19.0085 0
5 17.6507 17.6507 1.35775
5 20.3663 20.3663 1.35775
5 21.724 16.293 0
5 24.4395 19.0085 0
5 23.0817 17.6507 1.35775
5 25.7973 20.3663 1.35775
5 27.155 16.293 0
5 29.8705 19.0085 0
5 28.5128 17.6507 1.35775
5 31.2282 20.3663 1.35775
5 32.586 16.293 0
5 35.3015 19.0085 0
5 33.9438 17.6507 1.35775
5 36.6593 20.3663 1.35775
5 38.017 16.293 0
5 40.7325 19.0085 0
5 39.3747 17.6507 1.35775
5 42.0902 20.3663 1.35775
5 43.448 16.293 0
5 46.1635 19.0085 0
5 44.8058 17.6507 1.35775
5 47.5213 20.3663 1.35775
1 48.879 16.293 0
1 51.5945 19.0085 0
1 50.2368 17.6507 1.35775
1 52.9522 20.3663 1.35775
1 54.31 16.293 0
1 57.0255 19.0085 0
1 55.6677 17.6507 1.35775
1 58.3833 20.3663 1.35775
1 59.741 16.293 0
1 62.4565 19.0085 0
1 61.0988 17.6507 1.35775
1 63.8143 20.3663 1.35775
1 65.172 16.293 0
1 67.8875 19.0085 0
1 66.5298 17.6507 1.35775
1 69.2452 20.3663 1.35775
1 70.603 16.293 0
1 73.3185 19.0085 0
1 71.9608 17.6507 1.35775
1 74.6762 20.3663 1.35775
1 76.034 16.293 0
1 78.7495 19.0085 0
1 77.3918 17.6507 1.35775
1 80.1073 20.3663 1.35775
1 81.465 16.293 0
1 84.1805 19.0085 0
1 82.8227 17.6507 1.35775
1 85.5383 20.3663 1.35775
1 86.896 16.293 0
1 89.6115 19.0085 0
1 88.2537 17.6507 1.35775
1 90.9693 20.3663 1.35775
1 92.327 16.293 0
1 95.0425 19.0085 0
1 93.6847 17.6507 1.35775
1 96.4002 20.3663 1.35775
1 97.758 16.293 0
1 100.474 19.0085 0
1 99.1158 17.6507 1.35775
1 101.831 20.3663 1.35775
1 103.189 16.293 0
1 105.904 19.0085 0
1 104.547 17.6507 1.35775
1 107.262 20.3663 1.35775
1 108.62 16.293 0
5 0 21.724 0
5 2.7155 24.4395 0
5 1.35775 23.0817 1.35775
5 4.07325 25.7973 1.35775
5 5.431 21.724 0
5 8.1465 24.4395 0
5 6.78875 23.0817 1.35775
5 9.50425 25.7973 1.35775
5 10.862 21.724 0
5 13.5775 24.4395 0
5 12.2197 23.0817 1.35775
5 14.9352 25.7973 1.35775
5 16.293 21.724 0
5 19.0085 24.4395 0
5 17.6507 23.0817 1.35775
5 20.3663 25.7973 1.35775
5 21.724 21.724 0
5 24.4395 24.4395 0
5 23.0817 23.0817 1.35775
5 25.7973 25.7973 1.35775
5 27.155 21.724 0
5 29.8705 24.4395 0
5 28.5128 23.0817 1.35775
5 31.2282 25.7973 1.35775
5 32.586 21.724 0
5 35.3015 24.4395 0
5 33.9438 23.0817 1.35775
5 36.6593 25.7973 1.35775
5 38.017 21.724 0
5 40.7325 24.4395 0
5 39.3747 23.0817 1.35775
5 42.0902 25.7973 1.35775
5 43.448 21.724 0
5 46.1635 24.4395 0
5 44.8058 23.0817 1.35775
5 47.5213 25.7973 1.35775
1 48.879 21.724 0
1 51.5945 24.4395 0
1 50.2368 23.0817 1.35775
1 52.9522 25.7973 1.35775
1 54.31 21.724 0
1 57.0255 24.4395 0
1 55.6677 23.0817 1.35775
1 58.3833 25.7973 1.35775
1 59.741 21.724 0
1 62.4565 24.4395 0
1 61.0988 23.0817 1.35775
1 63.8143 25.7973 1.35775
1 65.172 21.724 0
1 67.8875 24.4395 0
1 66.5298 23.0817 1.35775
1 69.2452 25.7973 1.35775
1 70.603 21.724 0
1 73.3185 24.4395 0
1 71.9608 23.0817 1.35775
1 74.6762 25.7973 1.35775
1 76.034 21.724 0
1 78.7495 24.4395 0
1 77.3918 23.0817 1.35775
1 80.1073 25.7973 1.35775
1 81.465 21.724 0
1 84.1805 24.4395 0
1 82.8227 23.0817 1.35775
1 85.5383 25.7973 1.35775
1 86.896 21.724 0
1 89.6115 24.4395 0
1 88.2537 23.0817 1.35775
1 90.9693 25.7973 1.35775
1 92.327 21.724 0
1 95.0425 24.4395 0
1 93.6847 23.0817 1.35775
1 96.4002 25.7973 1.35775