1661
 Atoms. Timestep: 5000
5 0 5.431 -2.7155
5 2.7155 2.7155 -2.7155
5 1.35775 6.78875 -1.35775
5 4.07325 4.07325 -1.35775
5 5.431 5.431 -2.7155
5 8.1465 2.7155 -2.7155
5 6.78875 6.78875 -1.35775
5 9.50425 4.07325 -1.35775
5 10.862 5.431 -2.7155
5 13.5775 2.7155 -2.7155
5 12.2197 6.78875 -1.35775
5 14.9352 4.07325 -1.35775
5 16.293 5.431 -2.7155
5 19.0085 2.7155 -2.7155
5 17.6507 6.78875 -1.35775
5 20.3663 4.07325 -1.35775
5 21.724 5.431 -2.7155
5 24.4395 2.7155 -2.7155
5 23.0817 6.78875 -1.35775
5 25.7973 4.07325 -1.35775
5 27.155 5.431 -2.7155
5 29.8705 2.7155 -2.7155
5 28.5128 6.78875 -1.35775
5 31.2282 4.07325 -1.35775
5 32.586 5.431 -2.7155
5 35.3015 2.7155 -2.7155
5 33.9438 6.78875 -1.35775
5 36.6593 4.07325 -1.35775
5 38.017 5.431 -2.7155
5 40.7325 2.7155 -2.7155
5 39.3747 6.78875 -1.35775
5 42.0902 4.07325 -1.35775
5 43.448 5.431 -2.7155
5 46.1635 2.7155 -2.7155
5 44.8058 6.78875 -1.35775
5 47.5213 4.07325 -1.35775
4 48.879 2.7155 -2.7155
4 51.5945 0 -2.7155
4 50.2368 4.07325 -1.35775
4 52.9522 1.35775 -1.35775
4 54.31 2.7155 -2.7155
4 57.0255 0 -2.7155
4 55.6677 4.07325 -1.35775
4 58.3833 1.35775 -1.35775
4 59.741 2.7155 -2.7155
4 62.4565 0 -2.7155
4 61.0988 4.07325 -1.35775
4 63.8143 1.35775 -1.35775
4 65.172 2.7155 -2.7155
4 67.8875 0 -2.7155
4 66.5298 4.07325 -1.35775
4 69.2452 1.35775 -1.35775
4 70.603 2.7155 -2.7155
4 73.3185 0 -2.7155
4 71.9608 4.07325 -1.35775
4 74.6762 1.35775 -1.35775
4 76.034 2.7155 -2.7155
4 78.7495 0 -2.7155
4 77.3918 4.07325 -1.35775
4 80.1073 1.35775 -1.35775
4 81.465 2.7155 -2.7155
4 84.1805 0 -2.7155
4 82.8227 4.07325 -1.35775
4 85.5383 1.35775 -1.35775
4 86.896 2.7155 -2.7155
4 89.6115 0 -2.7155
4 88.2537 4.07325 -1.35775
4 90.9693 1.35775 -1.35775
4 92.327 2.7155 -2.7155
4 95.0425 0 -2.7155
4 93.6847 4.07325 -1.35775
4 96.4002 1.35775 -1.35775
4 97.758 2.7155 -2.7155
4 100.474 0 -2.7155
4 99.1158 4.07325 -1.35775
4 101.831 1.35775 -1.35775
4 103.189 2.7155 -2.7155
4 105.904 0 -2.7155
4 104.547 4.07325 -1.35775
4 107.262 1.35775 -1.35775
4 108.62 2.7155 -2.7155
5 0 10.862 -2.71543
5 2.7155 8.1465 -2.7155
5 1.35775 12.2197 -1.43774
5 4.07325 9.50425 -1.35775
5 5.431 10.862 2.70864
5 8.1465 8.1465 -2.7155
5 6.78875 12.2197 -1.38696
5 9.50425 9.50425 -1.35775
5 10.862 10.862 2.70796
5 13.5775 8.1465 -2.7155
5 12.2197 12.2197 -1.34508
5 14.9352 9.50425 -1.35775
5 16.293 10.862 2.71168
5 19.0085 8.1465 -2.7155
5 17.6507 12.2197 -1.3281
5 20.3663 9.50425 -1.35775
5 21.724 10.862 -2.69657
5 24.4395 8.1465 -2.7155
5 23.0817 12.2197 -1.30956
5 25.7973 9.50425 -1.35775
5 27.155 10.862 2.69053
5 29.8705 8.1465 -2.7155
5 28.5128 12.2197 -1.30363
5 31.2282 9.50425 -1.35775
5 32.586 10.862 -2.70278
5 35.3015 8.1465 -2.7155
5 33.9438 12.2197 -1.39425
5 36.6593 9.50425 -1.35775
5 38.017 10.862 2.70511
5 40.7325 8.1465 -2.7155
5 39.3747 12.2197 -1.34844
5 42.0902 9.50425 -1.35775
5 43.448 10.862 2.71351
5 46.1635 8.1465 -2.7155
5 44.8058 12.2197 -1.28321
5 47.5213 9.50425 -1.35775
1 48.7757 10.7033 2.67057
4 51.5945 5.431 -2.7155
1 50.2765 10.925 -0.971526
4 52.9522 6.78875 -1.35775
1 54.2453 8.26787 2.6801
4 57.0255 5.431 -2.7155
1 55.4624 9.92434 -1.35446
4 58.3833 6.78875 -1.35775
1 59.6672 8.2822 -2.76174
4 62.4565 5.431 -2.7155
1 60.9711 9.61914 -1.35713
4 63.8143 6.78875 -1.35775
1 65.0094 8.32878 -2.70275
4 67.8875 5.431 -2.7155
1 66.4137 9.65974 -1.28921
4 69.2452 6.78875 -1.35775
1 70.6427 8.1462 2.79714
4 73.3185 5.431 -2.7155
1 71.9276 9.55215 -1.25885
4 74.6762 6.78875 -1.35775
1 76.0507 8.15827 2.69291
4 78.7495 5.431 -2.7155
1 77.4025 9.55168 -1.42628
4 80.1073 6.78875 -1.35775
1 81.3946 8.17256 -2.69203
4 84.1805 5.431 -2.7155
1 82.6777 9.69188 -1.28699
4 85.5383 6.78875 -1.35775
1 86.8692 8.23037 2.69568
4 89.6115 5.431 -2.7155
1 88.1472 9.55071 -1.32952
4 90.9693 6.78875 -1.35775
1 92.2674 8.16137 -2.78573
4 95.0425 5.431 -2.7155
1 93.5392 9.52806 -1.39342
4 96.4002 6.78875 -1.35775
1 97.7702 8.22575 -2.72761
4 100.474 5.431 -2.7155
1 99.0749 9.56115 -1.35632
4 101.831 6.78875 -1.35775
1 103.243 8.10191 -2.67771
4 105.904 5.431 -2.7155
1 104.602 9.51143 -1.42999
4 107.262 6.78875 -1.35775
1 108.634 8.09169 -2.78458
5 0 16.293 2.63198
5 2.7155 13.5775 -2.66834
5 1.35775 17.6508 -1.41954
5 4.07325 14.9352 -1.41133
5 5.431 16.293 2.69468
5 8.1465 13.5775 2.65187
5 6.78875 17.6508 -1.37557
5 9.50425 14.9352 -1.35301
5 10.862 16.293 -2.70665
5 13.5775 13.5775 2.70071
5 12.2197 17.6508 -1.28115
5 14.9352 14.9352 -1.35625
5 16.293 16.293 -2.66331
5 19.0085 13.5775 -2.66278
5 17.6507 17.6508 -1.27732
5 20.3663 14.9352 -1.2992
5 21.724 16.293 -2.66359
5 24.4395 13.5775 -2.70287
5 23.0817 17.6508 -1.19674
5 25.7973 14.9352 -1.26974
5 27.155 16.293 -2.59502
5 29.8705 13.5775 -2.65836
5 28.5128 17.6508 -1.25159
5 31.2282 14.9352 -1.34759
5 32.586 16.293 -2.65618
5 35.3015 13.5775 2.69208
5 33.9438 17.6508 -1.36378
5 36.6593 14.9352 -1.41571
5 38.017 16.293 2.63976
5 40.7325 13.5775 2.70688
5 39.3747 17.6508 -1.47285
5 42.0902 14.9352 -1.3132
5 43.448 16.293 -2.65676
5 46.1635 13.5775 -2.63974
5 44.8058 17.6508 -1.32647
5 47.5213 14.9352 -1.28961
1 48.9827 15.8848 2.59686
1 51.5675 12.0178 2.79668
1 50.2635 16.9033 -1.24224
1 52.8266 13.4001 -1.23056
1 54.186 14.6357 2.66712
1 56.8466 11.351 -2.77804
1 55.5038 15.8858 -1.28069
1 58.1501 12.8264 -1.4209
1 59.6074 14.1234 -2.67232
1 62.2404 11.0239 -2.58494
1 60.8772 15.5483 -1.18014
1 63.6042 12.5558 -1.29138
1 64.9764 13.912 -2.60569
1 67.7667 10.9827 -2.65936
1 66.3879 15.3984 -1.25792
1 69.0852 12.3733 -1.22683
1 70.409 13.737 -2.57667
1 73.2503 10.9047 -2.67831
1 71.7929 15.085 -1.27319
1 74.516 12.2559 -1.12735
1 75.8424 13.6955 -2.5614
1 78.6487 11.0101 -2.65371
1 77.1981 15.1233 -1.31516
1 79.9356 12.4317 -1.23419
1 81.2514 13.7801 -2.58483
1 84.0921 11.0785 -2.69972
1 82.7428 15.0537 -1.22024
1 85.4787 12.4349 -1.28136
1 86.8662 13.7642 -2.67453
1 89.4926 10.9359 2.65863
1 88.1807 15.1937 -1.32274
1 90.8736 12.2878 -1.37631
1 92.2706 13.7214 -2.65723
1 95.0049 10.9114 -2.62479
1 93.5698 15.0096 -1.18393
1 96.3762 12.2025 -1.20246
1 97.7063 13.4004 -2.62434
1 100.524 10.8696 -2.68382
1 98.9163 14.9263 -1.287
1 101.819 12.2826 -1.30773
1 103.237 13.5917 -2.70801
1 106.003 10.9239 2.69369
1 104.574 14.9125 -1.31055
1 107.336 12.2873 -1.36953
1 108.599 13.7941 2.85796
5 0 21.724 -2.68297
5 2.7155 19.0085 2.66817
5 1.35775 23.0818 -1.35284
5 4.07325 20.3663 -1.38681
5 5.431 21.724 -2.69603
5 8.1465 19.0085 -2.67038
5 6.78875 23.0818 -1.36454
5 9.50425 20.3663 -1.3325
5 10.862 21.724 -2.69503
5 13.5775 19.0085 -2.67287
5 12.2197 23.0818 -1.38315
5 14.9352 20.3663 -1.25766
5 16.293 21.724 -2.60809
5 19.0085 19.0085 -2.61029
5 17.6507 23.0818 -1.26276
5 20.3663 20.3663 -1.26122
5 21.724 21.724 -2.56915
5 24.4395 19.0085 -2.60442
5 23.0817 23.0818 -1.29124
5 25.7973 20.3663 -1.27091
5 27.155 21.724 -2.61904
5 29.8705 19.0085 -2.60565
5 28.5128 23.0818 -1.34844
5 31.2282 20.3663 -1.27871
5 32.586 21.724 -2.64748
5 35.3015 19.0085 -2.70053
5 33.9438 23.0818 -1.25023
5 36.6593 20.3663 -1.34704
5 38.017 21.724 2.67259
5 40.7325 19.0085 2.63251
5 39.3747 23.0818 -1.36259
5 42.0902 20.3663 -1.39646
5 43.448 21.724 2.68707
5 46.1635 19.0085 2.71548
5 44.8058 23.0818 -1.35067
5 47.5213 20.3663 -1.28631
1 48.8756 21.572 2.74864
1 51.6978 18.1319 2.87413
1 50.2467 22.7508 -1.20508
1 53.0792 19.3483 -1.10405
1 54.387 20.5403 2.80436
1 56.918 17.2567 2.73525
1 55.6208 21.822 -1.16664
1 58.3288 18.6081 -1.22967
1 59.7444 20.0216 -2.63007
1 62.269 16.8557 -2.68927
1 61.0817 21.3134 -1.19989
1 63.6875 18.1943 -1.30227
1 65.0354 19.7326 -2.58895
1 67.7681 16.6683 -2.69428
1 66.4481 20.9989 -1.24524
1 69.0686 18.0358 -1.27343
1 70.4889 19.3635 -2.57202
1 73.1176 16.4947 -2.62133
1 71.8498 20.734 -1.21148
1 74.4158 17.8415 -1.26365
1 75.878 19.2351 -2.52381
1 78.563 16.5548 -2.62348
1 77.2369 20.6517 -1.22461
1 79.9606 17.8367 -1.2688
1 81.4408 19.2129 -2.56865
1 84.1302 16.4959 -2.58618
1 82.8118 20.5247 -1.18443
1 85.4682 17.8692 -1.21543
1 86.8685 19.2439 -2.54021
1 89.5786 16.5007 -2.59756
1 88.1753 20.583 -1.12907
1 90.9079 17.8111 -1.21001
1 92.4036 19.1268 -2.5111
1 94.9533 16.4327 -2.55531
1 93.6751 20.4735 -1.1669
1 96.3309 17.7359 -1.14638
1 97.6776 19.0946 -2.65405
1 100.337 16.3391 -2.51348
1 99.1968 20.2813 -1.25282
1 101.755 17.6389 -1.17283
1 103.226 18.9556 -2.52084
1 105.879 16.3276 2.76624
1 104.578 20.4309 -1.36182
1 107.284 17.6735 -1.34077
1 108.545 18.9844 2.61448
5 0 27.155 -2.60516
5 2.7155 24.4395 -2.61144
5 1.35775 28.5128 -1.32667
5 4.07325 25.7973 -1.27164
5 5.431 27.155 -2.60767
5 8.1465 24.4395 2.70293
5 6.78875 28.5128 -1.25386
5 9.50425 25.7973 -1.3714
5 10.862 27.155 2.66431
5 13.5775 24.4395 2.68096
5 12.2197 28.5128 -1.34487
5 14.9352 25.7973 -1.40261
5 16.293 27.155 -2.70308
5 19.0085 24.4395 -2.61801
5 17.6507 28.5128 -1.35988
5 20.3663 25.7973 -1.29193
5 21.724 27.155 -2.70039
5 24.4395 24.4395 -2.65922
5 23.0817 28.5128 -1.33539
5 25.7973 25.7973 -1.31983
5 27.155 27.155 -2.6812
5 29.8705 24.4395 -2.66451
5 28.5128 28.5128 -1.28017
5 31.2282 25.7973 -1.31945
5 32.586 27.155 -2.67376
5 35.3015 24.4395 -2.61113
5 33.9438 28.5128 -1.32215
5 36.6593 25.7973 -1.33108
5 38.017 27.155 -2.71374
5 40.7325 24.4395 2.61908
5 39.3747 28.5128 -1.37859
5 42.0902 25.7973 -1.3818
5 43.448 27.155 2.67422
5 46.1635 24.4395 -2.68487
5 44.8058 28.5128 -1.30629
5 47.5213 25.7973 -1.37882
1 48.8766 26.9994 2.70077
1 51.7081 23.8463 -2.66536
1 50.2553 28.0882 -1.15416
1 53.0126 25.0775 -1.14473
1 54.3665 26.3304 -2.57564
1 56.9201 23.0984 -2.66964
1 55.8296 27.6519 -1.11221
1 58.2349 24.3855 -0.970539
1 59.7585 25.605 2.90776
1 62.469 22.6159 -2.60917
1 61.1894 26.9042 -1.11544
1 63.7345 24.0087 -1.21833
1 65.1725 25.1918 -2.63589
1 67.8317 22.2117 -2.62513
1 66.5146 26.6139 -1.20007
1 69.1612 23.6041 -1.26626
1 70.5885 24.9816 -2.62736
1 73.233 22.0888 -2.60287
1 72.0592 26.3548 -1.32402
1 74.5939 23.4857 -1.1745
1 76.0219 24.8623 -2.55679
1 78.7356 21.9982 -2.58666
1 77.3584 26.2975 -1.18614
1 80.1096 23.3681 -1.17244
1 81.5614 24.6643 -2.59834
1 84.2898 21.9304 -2.52664
1 82.8469 26.0148 -1.09924
1 85.5662 23.2898 -1.10733
1 86.9968 24.6315 -2.3629
1 89.6301 21.9256 -2.44708
1 88.36 26.0376 -1.01836
1 90.9684 23.3606 -1.12797
1 92.4234 24.6836 -2.43147
1 95.1043 21.8856 -2.45911
1 93.776 25.9259 -1.03491
1 96.3751 23.1954 -1.04967
1 97.714 24.4246 -2.47723
1 100.46 21.6135 -2.56599
1 99.1217 25.8491 -1.23575
1 101.801 23.0254 -1.30936
1 103.124 24.4703 -2.64638
1 105.966 21.7166 -2.69276
1 104.46 25.7971 -1.29221
1 107.273 23.0688 -1.28347
1 108.472 24.7148 3.03311
5 0 32.586 -2.61255
5 2.7155 29.8705 -2.65371
5 1.35775 33.9438 -1.27513
5 4.07325 31.2283 -1.30261
5 5.431 32.586 -2.64002
5 8.1465 29.8705 -2.59984
5 6.78875 33.9438 -1.3368
5 9.50425 31.2283 -1.27458
5 10.862 32.586 -2.67215
5 13.5775 29.8705 -2.69727
5 12.2197 33.9438 -1.34555
5 14.9352 31.2283 -1.32603
5 16.293 32.586 -2.69421
5 19.0085 29.8705 -2.66204
5 17.6507 33.9438 -1.3507
5 20.3663 31.2283 -1.34382
5 21.724 32.586 -2.62154
5 24.4395 29.8705 -2.65716
5 23.0817 33.9438 -1.2423
5 25.7973 31.2283 -1.32218
5 27.155 32.586 -2.65781
5 29.8705 29.8705 -2.61485
5 28.5128 33.9438 -1.29348
5 31.2282 31.2283 -1.28748
5 32.586 32.586 2.67894
5 35.3015 29.8705 2.69709
5 33.9438 33.9438 -1.35029
5 36.6593 31.2283 -1.40766
5 38.017 32.586 -2.6921
5 40.7325 29.8705 -2.68114
5 39.3747 33.9438 -1.34217
5 42.0902 31.2283 -1.32669
5 43.448 32.586 -2.70833
5 46.1635 29.8705 -2.69833
5 44.8058 33.9438 -1.35261
5 47.5213 31.2283 -1.25627
1 48.9222 32.4515 2.70249
1 51.6199 29.4734 2.84206
1 50.2963 33.5929 -1.28982
1 52.9273 30.7572 -1.17712
1 54.2807 31.9567 -2.64666
1 57.2078 28.817 -2.59601
1 55.6067 33.146 -1.24025
1 58.4664 30.1811 -1.15242
1 59.8304 31.3275 -2.63772
1 62.5402 28.2591 -2.47439
1 61.118 32.5536 -1.14452
1 63.8994 29.6341 -1.16876
1 65.3266 30.8494 -2.57228
1 67.9991 27.8264 -2.62236
1 66.6844 32.1224 -1.11696
1 69.3896 29.1158 -1.22269
1 70.6349 30.5782 -2.68129
1 73.3899 27.7238 -2.6137
1 72.0097 31.909 -1.24191
1 74.6893 29.0637 -1.26651
1 76.1765 30.3164 -2.60116
1 78.8279 27.426 -2.59355
1 77.5943 31.7113 -1.32718
1 80.2521 28.7795 -1.25889
1 81.5418 30.2116 -2.60701
1 84.2642 27.4349 -2.43627
1 82.9536 31.564 -1.21186
1 85.6191 28.7789 -1.04865
1 86.9871 30.2399 -2.4034
1 89.7696 27.4515 -2.36294
1 88.4296 31.4702 -1.00396
1 91.1134 28.7479 -1.04679
1 92.3542 30.1232 -2.42879
1 95.1818 27.3242 -2.41209
1 93.794 31.3456 -1.11423
1 96.5087 28.6118 -0.985767
1 97.858 29.9809 -2.37602
1 100.514 27.1573 -2.50873
1 99.3155 31.2529 -1.03789
1 101.83 28.4605 -1.14539
1 103.295 29.6972 -2.46664
1 105.825 27.1811 -2.69058
1 104.769 31.1408 -1.18229
1 107.204 28.4154 -1.24639
1 108.614 29.8244 -2.40975
5 0 38.017 -2.63206
5 2.7155 35.3015 -2.62245
5 1.35775 39.3748 -1.23887
5 4.07325 36.6593 -1.37622
5 5.431 38.017 -2.70393
5 8.1465 35.3015 -2.64732
5 6.78875 39.3748 -1.31106
5 9.50425 36.6593 -1.31103
5 10.862 38.017 -2.71065
5 13.5775 35.3015 -2.69663
5 12.2197 39.3748 -1.33369
5 14.9352 36.6593 -1.42543
5 16.293 38.017 2.65473
5 19.0085 35.3015 -2.70883
5 17.6507 39.3748 -1.40294
5 20.3663 36.6593 -1.3188
5 21.724 38.017 -2.67508
5 24.4395 35.3015 -2.635
5 23.0817 39.3748 -1.29482
5 25.7973 36.6593 -1.25273
5 27.155 38.017 -2.64535
5 29.8705 35.3015 -2.66406
5 28.5128 39.3748 -1.30055
5 31.2282 36.6593 -1.34962
5 32.586 38.017 -2.65732
5 35.3015 35.3015 2.68513
5 33.9438 39.3748 -1.29404
5 36.6593 36.6593 -1.30892
5 38.017 38.017 -2.65154
5 40.7325 35.3015 2.71404
5 39.3747 39.3748 -1.32387
5 42.0902 36.6593 -1.3825
5 43.448 38.017 2.69512
5 46.1635 35.3015 -2.68039
5 44.8058 39.3748 -1.31034
5 47.5213 36.6593 -1.29656
1 48.8764 38.015 2.71861
1 51.5848 34.8443 -2.73394
1 50.3001 39.1756 -1.22768
1 53.0038 36.1599 -1.33848
1 54.3993 37.5094 2.7587
1 57.1553 34.3497 -2.55782
1 55.8746 38.6034 -1.24573
1 58.5231 35.6029 -1.10844
1 59.9683 36.7179 -2.52072
1 62.5259 33.8714 -2.53476
1 61.3261 38.1 -1.14458
1 64.1062 35.1429 -1.10913
1 65.4804 36.3839 -2.57259
1 68.035 33.4363 -2.47198
1 66.9345 37.696 -1.16009
1 69.3773 34.7772 -1.11781
1 70.7532 36.1311 -2.6151
1 73.429 33.1812 -2.65806
1 72.1804 37.3352 -1.31935
1 74.7852 34.4173 -1.27364
1 76.1816 35.695 -2.64318
1 78.9007 32.9913 -2.7
1 77.6054 37.021 -1.43083
1 80.374 34.2744 -1.34809
1 81.7579 35.7143 -2.56773
1 84.4006 32.9987 -2.50876
1 83.1497 36.9914 -1.17461
1 85.8611 34.2484 -1.2156
1 87.1603 35.6202 -2.54452
1 89.8301 32.8083 -2.46401
1 88.4475 36.9054 -1.16577
1 91.2797 34.1531 -1.11254
1 92.5835 35.4224 -2.4942
1 95.1403 32.7334 -2.5105
1 94.0151 36.7703 -1.22787
1 96.5939 34.0422 -1.0532
1 98.0466 35.3765 -2.46013
1 100.622 32.4625 -2.49894
1 99.4262 36.603 -1.15986
1 102.097 33.767 -1.22278
1 103.532 35.1754 -2.55186
1 106.183 32.4764 -2.50093
1 104.71 36.4859 -1.02906
1 107.502 33.757 -1.10232
1 109 34.9299 -2.49379
5 0 43.448 -2.7087
5 2.7155 40.7325 -2.66017
5 1.35775 44.8058 -1.34666
5 4.07325 42.0903 -1.33436
5 5.431 43.448 -2.70139
5 8.1465 40.7325 2.67524
5 6.78875 44.8058 -1.38754
5 9.50425 42.0903 -1.33276
5 10.862 43.448 2.70549
5 13.5775 40.7325 2.70846
5 12.2197 44.8058 -1.36249
5 14.9352 42.0903 -1.42273
5 16.293 43.448 2.63609
5 19.0085 40.7325 2.69188
5 17.6507 44.8058 -1.39416
5 20.3663 42.0903 -1.36012
5 21.724 43.448 -2.64803
5 24.4395 40.7325 -2.61737
5 23.0817 44.8058 -1.29583
5 25.7973 42.0903 -1.29132
5 27.155 43.448 -2.6977
5 29.8705 40.7325 -2.6352
5 28.5128 44.8058 -1.33573
5 31.2282 42.0903 -1.2468
5 32.586 43.448 2.70267
5 35.3015 40.7325 -2.67157
5 33.9438 44.8058 -1.43523
5 36.6593 42.0903 -1.34332
5 38.017 43.448 -2.70054
5 40.7325 40.7325 -2.63009
5 39.3747 44.8058 -1.3665
5 42.0902 42.0903 -1.31323
5 43.448 43.448 -2.69775
5 46.1635 40.7325 -2.69548
5 44.8058 44.8058 -1.38377
5 47.5213 42.0903 -1.43507
1 48.8824 43.3589 2.69848
1 51.6519 40.3867 2.71331
1 50.3577 44.5534 -1.40001
1 53.1701 41.5297 -1.36511
1 54.5169 42.7102 -2.74159
1 57.3131 39.8117 -2.58504
1 55.793 44.0788 -1.36448
1 58.6287 41.095 -1.25254
1 59.9719 42.2951 -2.65029
1 62.7103 39.3886 -2.5748
1 61.4008 43.6041 -1.24625
1 64.1195 40.5612 -1.17195
1 65.4592 41.8645 -2.60661
1 68.2433 39.0653 -2.60379
1 66.8134 43.0652 -1.21721
1 69.7015 40.2228 -1.2008
1 71.0824 41.5076 -2.57043
1 73.6668 38.5774 -2.59939
1 72.3209 42.8305 -1.11163
1 75.0288 39.9129 -1.21082
1 76.3228 41.2076 -2.70641
1 78.9688 38.4827 -2.68307
1 77.6972 42.5736 -1.27248
1 80.3316 39.806 -1.25153
1 81.6663 41.1751 -2.56761
1 84.4493 38.3745 -2.57627
1 83.1133 42.4453 -1.15993
1 85.8066 39.707 -1.18134
1 87.1002 41.1635 -2.48106
1 89.7814 38.2449 -2.50736
1 88.4912 42.3702 -1.101
1 91.2196 39.4944 -1.0846
1 92.5957 40.8569 -2.44571
1 95.4032 38.1154 -2.54408
1 93.986 42.1949 -1.08934
1 96.6554 39.4172 -1.07051
1 98.0863 40.7046 -2.38795
1 100.76 37.9482 -2.56391
1 99.4287 42.1275 -1.08131
1 102.001 39.2155 -1.07448
1 103.523 40.4274 -2.24574
1 106.254 37.6819 -2.37947
1 104.938 41.741 -0.911986
1 107.619 38.9565 -0.938895
1 109.14 40.241 -2.33603
5 0 48.879 2.69626
5 2.7155 46.1635 2.70377
5 1.35775 50.2368 -1.43462
5 4.07325 47.5213 -1.3614
5 5.431 48.879 2.66903
5 8.1465 46.1635 2.69325
5 6.78875 50.2368 -1.42813
5 9.50425 47.5213 -1.39917
5 10.862 48.879 -2.69138
5 13.5775 46.1635 2.6786
5 12.2197 50.2368 -1.32651
5 14.9352 47.5213 -1.41305
5 16.293 48.879 2.68531
5 19.0085 46.1635 2.6318
5 17.6507 50.2368 -1.37599
5 20.3663 47.5213 -1.34193
5 21.724 48.879 -2.70744
5 24.4395 46.1635 -2.69157
5 23.0817 50.2368 -1.42461
5 25.7973 47.5213 -1.32762
5 27.155 48.879 -2.69109
5 29.8705 46.1635 2.68948
5 28.5128 50.2368 -1.34445
5 31.2282 47.5213 -1.39488
5 32.586 48.879 2.62298
5 35.3015 46.1635 2.67038
5 33.9438 50.2368 -1.44312
5 36.6593 47.5213 -1.34959
5 38.017 48.879 2.65295
5 40.7325 46.1635 2.67151
5 39.3747 50.2368 -1.39945
5 42.0902 47.5213 -1.42137
5 43.448 48.879 2.64212
5 46.1635 46.1635 2.68335
5 44.8058 50.2368 -1.39413
5 47.5213 47.5213 -1.3556
1 48.9053 48.7826 2.65144
1 51.7572 45.8545 -2.8122
1 50.4081 50.0105 -1.30419
1 53.1706 47.0222 -1.28537
1 54.6123 48.2608 -2.7218
1 57.2862 45.2874 -2.80518
1 55.9379 49.4964 -1.23804
1 58.6577 46.6086 -1.26422
1 60.079 47.8557 -2.66233
1 62.7131 44.8655 -2.67093
1 61.561 49.0031 -1.15443
1 64.1882 46.0685 -1.2172
1 65.6462 47.2675 -2.7
1 68.3846 44.3306 -2.53511
1 66.9758 48.4992 -1.20228
1 69.6545 45.7271 -1.1456
1 70.9726 47.0607 -2.58273
1 73.6719 44.217 -2.52754
1 72.4057 48.3645 -1.27627
1 75.1099 45.4872 -1.15112
1 76.3912 46.9349 -2.49758
1 79.0404 43.9832 -2.54622
1 77.7645 48.2803 -1.17998
1 80.374 45.2662 -1.1998
1 81.7518 46.6158 -2.49192
1 84.446 43.8309 -2.60936
1 83.1484 47.9835 -1.09811
1 85.7684 45.1946 -1.14404
1 87.22 46.4692 -2.43002
1 89.9039 43.6534 -2.46224
1 88.5197 47.8033 -1.08276
1 91.3109 45.0518 -1.04971
1 92.6752 46.4833 -2.40692
1 95.4669 43.5496 -2.42712
1 94.1819 47.7628 -1.08003
1 96.7281 44.8989 -1.05537
1 98.2175 46.1933 -2.31422
1 100.735 43.4186 -2.44879
1 99.6754 47.493 -0.824527
1 102.264 44.5859 -0.99305
1 103.758 45.8789 -2.17026
1 106.38 42.982 -2.33799
1 105.101 47.2069 -0.827759
1 107.718 44.2753 -0.940119
1 109.074 45.6254 -2.16182
5 0 54.31 2.57754
5 2.7155 51.5945 2.64053
5 1.35775 55.6678 -1.64768
5 4.07325 52.9523 -1.50163
5 5.431 54.31 2.56851
5 8.1465 51.5945 2.62507
5 6.78875 55.6678 -1.42812
5 9.50425 52.9523 -1.37979
5 10.862 54.31 -2.69272
5 13.5775 51.5945 -2.66952
5 12.2197 55.6678 -1.39708
5 14.9352 52.9523 -1.43616
5 16.293 54.31 -2.69633
5 19.0085 51.5945 2.68719
5 17.6507 55.6678 -1.33896
5 20.3663 52.9523 -1.34394
5 21.724 54.31 -2.69455
5 24.4395 51.5945 2.68998
5 23.0817 55.6678 -1.26596
5 25.7973 52.9523 -1.39947
5 27.155 54.31 2.63398
5 29.8705 51.5945 2.63662
5 28.5128 55.6678 -1.50085
5 31.2282 52.9523 -1.47108
5 32.586 54.31 2.6301
5 35.3015 51.5945 2.61251
5 33.9438 55.6678 -1.50733
5 36.6593 52.9523 -1.47034
5 38.017 54.31 2.59325
5 40.7325 51.5945 2.62687
5 39.3747 55.6678 -1.5399
5 42.0902 52.9523 -1.42688
5 43.448 54.31 2.68125
5 46.1635 51.5945 -2.71417
5 44.8058 55.6678 -1.3795
5 47.5213 52.9523 -1.3201
1 48.9865 54.22 2.70554
1 51.7259 51.1762 -2.75209
1 50.557 55.4806 -1.3489
1 53.1542 52.4294 -1.33774
1 54.6637 53.7143 -2.69707
1 57.4519 50.7676 -2.6781
1 56.15 54.8685 -1.24679
1 59.0153 51.9609 -1.3303
1 60.4894 53.0823 -2.70847
1 62.9412 50.1702 -2.65367
1 61.8525 54.4031 -1.36816
1 64.4071 51.5368 -1.30208
1 65.8904 52.7389 -2.67023
1 68.4334 49.793 -2.58513
1 67.2583 53.9075 -1.25745
1 69.8637 51.0999 -1.28386
1 71.2872 52.5603 -2.56532
1 73.862 49.638 -2.56417
1 72.654 53.8361 -1.15237
1 75.1847 51.0275 -1.11899
1 76.502 52.4284 -2.44394
1 79.2362 49.5709 -2.41258
1 77.8948 53.8062 -1.10763
1 80.5844 50.9765 -0.974075
1 81.9242 52.2985 -2.41761
1 84.531 49.2459 -2.45641
1 83.3021 53.5804 -1.13169
1 85.9414 50.5946 -1.05847
1 87.2971 52.0184 -2.42693
1 89.8788 49.202 -2.40625
1 88.8185 53.2561 -1.13804
1 91.4161 50.4757 -1.06537
1 92.9046 51.8295 -2.4146
1 95.6079 48.9993 -2.39349
1 94.2352 53.1165 -0.94038
1 97.032 50.2122 -0.987606
1 98.448 51.5362 -2.22061
1 101.088 48.7273 -2.20137
1 99.7671 52.8685 -0.845537
1 102.448 50.0909 -0.827039
1 103.971 51.294 -2.22295
1 106.492 48.3827 -2.18339
1 105.246 52.6445 -0.811505
1 107.922 49.6974 -0.797936
1 109.222 50.9601 -2.2249
5 2.7155 57.0255 2.54749
5 8.1465 57.0255 2.64951
5 13.5775 57.0255 -2.68338
5 19.0085 57.0255 -2.68381
5 24.4395 57.0255 -2.67579
5 29.8705 57.0255 2.66759
5 35.3015 57.0255 2.59217
5 40.7325 57.0255 2.5164
5 46.1635 57.0255 2.66036
1 52.0181 56.6914 2.70009
1 57.8062 55.9376 -2.55515
1 63.267 55.6603 -2.74807
1 68.6102 55.2451 -2.49331
1 73.9879 55.1213 -2.34205
1 79.4354 55.0768 -2.32977
1 84.6195 54.7809 -2.60004
1 90.313 54.6642 -2.18917
1 95.6507 54.4112 -2.28431
1 101.332 54.1681 -2.1671
1 106.764 53.8976 -2.08987
5 0 2.7155 0
5 2.7155 5.431 0
5 1.35775 4.07325 1.35775
5 4.07325 6.78875 1.35775
5 5.431 2.7155 0
5 8.1465 5.431 0
5 6.78875 4.07325 1.35775
5 9.50425 6.78875 1.35775
5 10.862 2.7155 0
5 13.5775 5.431 0
5 12.2197 4.07325 1.35775
5 14.9352 6.78875 1.35775
5 16.293 2.7155 0
5 19.0085 5.431 0
5 17.6507 4.07325 1.35775
5 20.3663 6.78875 1.35775
5 21.724 2.7155 0
5 24.4395 5.431 0
5 23.0817 4.07325 1.35775
5 25.7973 6.78875 1.35775
5 27.155 2.7155 0
5 29.8705 5.431 0
5 28.5128 4.07325 1.35775
5 31.2282 6.78875 1.35775
5 32.586 2.7155 0
5 35.3015 5.431 0
5 33.9438 4.07325 1.35775
5 36.6593 6.78875 1.35775
5 38.017 2.7155 0
5 40.7325 5.431 0
5 39.3747 4.07325 1.35775
5 42.0902 6.78875 1.35775
5 43.448 2.7155 0
5 46.1635 5.431 0
5 44.8058 4.07325 1.35775
5 47.5213 6.78875 1.35775
4 48.879 0 0
4 51.5945 2.7155 0
4 50.2368 1.35775 1.35775
4 52.9522 4.07325 1.35775
4 54.31 0 0
4 57.0255 2.7155 0
4 55.6677 1.35775 1.35775
4 58.3833 4.07325 1.35775
4 59.741 0 0
4 62.4565 2.7155 0
4 61.0988 1.35775 1.35775
4 63.8143 4.07325 1.35775
4 65.172 0 0
4 67.8875 2.7155 0
4 66.5298 1.35775 1.35775
4 69.2452 4.07325 1.35775
4 70.603 0 0
4 73.3185 2.7155 0
4 71.9608 1.35775 1.35775
4 74.6762 4.07325 1.35775
4 76.034 0 0
4 78.7495 2.7155 0
4 77.3918 1.35775 1.35775
4 80.1073 4.07325 1.35775
4 81.465 0 0
4 84.1805 2.7155 0
4 82.8227 1.35775 1.35775
4 85.5383 4.07325 1.35775
4 86.896 0 0
4 89.6115 2.7155 0
4 88.2537 1.35775 1.35775
4 90.9693 4.07325 1.35775
4 92.327 0 0
4 95.0425 2.7155 0
4 93.6847 1.35775 1.35775
4 96.4002 4.07325 1.35775
4 97.758 0 0
4 100.474 2.7155 0
4 99.1158 1.35775 1.35775
4 101.831 4.07325 1.35775
4 103.189 0 0
4 105.904 2.7155 0
4 104.547 1.35775 1.35775
4 107.262 4.07325 1.35775
4 108.62 0 0
5 0 8.1465 0
5 2.7155 10.862 -0.030378
5 1.35775 9.50425 1.35775
5 4.07325 12.2197 1.31966
5 5.431 8.1465 0
5 8.1465 10.862 -0.00207584
5 6.78875 9.50425 1.35775
5 9.50425 12.2197 1.35242
5 10.862 8.1465 0
5 13.5775 10.862 -0.00491819
5 12.2197 9.50425 1.35775
5 14.9352 12.2197 1.31869
5 16.293 8.1465 0
5 19.0085 10.862 0.00290528
5 17.6507 9.50425 1.35775
5 20.3663 12.2197 1.35757
5 21.724 8.1465 0
5 24.4395 10.862 0.003671
5 23.0817 9.50425 1.35775
5 25.7973 12.2197 1.35541
5 27.155 8.1465 0
5 29.8705 10.862 0.0272404
5 28.5128 9.50425 1.35775
5 31.2282 12.2197 1.35189
5 32.586 8.1465 0
5 35.3015 10.862 0.00908262
5 33.9438 9.50425 1.35775
5 36.6593 12.2197 1.3219
5 38.017 8.1465 0
5 40.7325 10.862 0.0378749
5 39.3747 9.50425 1.35775
5 42.0902 12.2197 1.41817
5 43.448 8.1465 0
5 46.1635 10.862 0.0287579
5 44.8058 9.50425 1.35775
5 47.5213 12.2197 1.47408
4 48.879 5.431 0
1 51.4736 8.59037 -0.200694
4 50.2368 6.78875 1.35775
1 52.8112 10.0579 1.46616
4 54.31 5.431 0
1 56.9601 8.3053 0.00067669
4 55.6677 6.78875 1.35775
1 58.2216 9.82578 1.33646
4 59.741 5.431 0
1 62.3991 8.24607 0.0202729
4 61.0988 6.78875 1.35775
1 63.6608 9.76816 1.46283
4 65.172 5.431 0
1 67.9011 8.20832 0.0472
4 66.5298 6.78875 1.35775
1 69.2393 9.6013 1.48618
4 70.603 5.431 0
1 73.3459 8.15389 0.0644946
4 71.9608 6.78875 1.35775
1 74.6256 9.52861 1.46217
4 76.034 5.431 0
1 78.7126 8.1395 -0.0726732
4 77.3918 6.78875 1.35775
1 80.0429 9.59749 1.40261
4 81.465 5.431 0
1 84.1354 8.15889 0.00397245
4 82.8227 6.78875 1.35775
1 85.4365 9.48064 1.42598
4 86.896 5.431 0
1 89.6009 8.17921 -0.0201029
4 88.2537 6.78875 1.35775
1 90.8745 9.52295 1.37528
4 92.327 5.431 0
1 94.9401 8.18362 -0.0363639
4 93.6847 6.78875 1.35775
1 96.3245 9.48928 1.29817
4 97.758 5.431 0
1 100.482 8.14366 -0.0293611
4 99.1158 6.78875 1.35775
1 101.869 9.47051 1.27854
4 103.189 5.431 0
1 105.964 8.14898 0.00237661
4 104.547 6.78875 1.35775
1 107.37 9.54888 1.36763
4 108.62 5.431 0
5 0 13.5775 -0.0123317
5 2.7155 16.293 -0.0900773
5 1.35775 14.9352 1.31363
5 4.07325 17.6508 1.31552
5 5.431 13.5775 -0.028277
5 8.1465 16.293 0.0736872
5 6.78875 14.9352 1.35572
5 9.50425 17.6508 1.42897
5 10.862 13.5775 -0.00815739
5 13.5775 16.293 -0.00889917
5 12.2197 14.9352 1.39536
5 14.9352 17.6508 1.38529
5 16.293 13.5775 0.0549538
5 19.0085 16.293 0.0554889
5 17.6507 14.9352 1.37918
5 20.3663 17.6508 1.42657
5 21.724 13.5775 0.0208951
5 24.4395 16.293 0.114043
5 23.0817 14.9352 1.44745
5 25.7973 17.6508 1.4422
5 27.155 13.5775 0.0476033
5 29.8705 16.293 0.0464293
5 28.5128 14.9352 1.43601
5 31.2282 17.6508 1.44514
5 32.586 13.5775 0.00606015
5 35.3015 16.293 -0.0125542
5 33.9438 14.9352 1.32988
5 36.6593 17.6508 1.30038
5 38.017 13.5775 -0.0451612
5 40.7325 16.293 -0.0331181
5 39.3747 14.9352 1.29728
5 42.0902 17.6508 1.31001
5 43.448 13.5775 0.0909414
5 46.1635 16.293 0.049535
5 44.8058 14.9352 1.44404
5 47.5213 17.6508 1.35682
1 48.99 13.0891 -0.166751
1 51.5393 15.2339 -0.00438523
1 50.245 13.9892 1.6067
1 52.9634 16.4704 1.58243
1 54.0961 11.5006 -0.0170582
1 56.8627 14.3281 -0.0713631
1 55.4829 12.9772 1.39157
1 58.2378 15.6285 1.43018
1 59.5427 11.2297 -0.0574823
1 62.2546 13.9936 0.06814
1 60.9809 12.5557 1.42941
1 63.6424 15.383 1.3897
1 64.9924 11.1162 -0.0395793
1 67.7157 13.8475 0.121628
1 66.3668 12.4283 1.47361
1 69.1077 15.1437 1.45343
1 70.5421 10.9553 0.0674344
1 73.2282 13.7297 0.0827599
1 71.8325 12.3275 1.42391
1 74.4734 15.0767 1.53957
1 75.9438 10.9052 0.0694129
1 78.5506 13.7795 0.0452832
1 77.2494 12.3713 1.45015
1 79.901 15.0969 1.48547
1 81.3348 11.0431 0.022843
1 84.0265 13.7616 0.11558
1 82.6239 12.4247 1.46411
1 85.4613 15.1137 1.43181
1 86.7416 10.9081 0.0652202
1 89.4884 13.7341 -0.0333741
1 88.1781 12.3562 1.34617
1 90.8883 15.0263 1.39384
1 92.2192 10.998 0.101707
1 94.9898 13.6185 0.117946
1 93.613 12.3514 1.5456
1 96.3131 14.9055 1.61313
1 97.7884 10.7826 0.0378517
1 100.38 13.5971 0.113318
1 99.1401 12.1616 1.36971
1 101.792 14.9968 1.50543
1 103.263 10.8898 0.0146661
1 105.962 13.5993 -0.00259731
1 104.685 12.1969 1.3503
1 107.271 14.9788 1.42015
1 108.705 10.906 -0.0232953
5 0 19.0085 -0.0173586
5 2.7155 21.724 -0.0570092
5 1.35775 20.3663 1.35192
5 4.07325 23.0818 1.36604
5 5.431 19.0085 -0.0322161
5 8.1465 21.724 -0.0570884
5 6.78875 20.3663 1.33234
5 9.50425 23.0818 1.3112
5 10.862 19.0085 0.0309824
5 13.5775 21.724 0.0204994
5 12.2197 20.3663 1.40551
5 14.9352 23.0818 1.37085
5 16.293 19.0085 0.0443708
5 19.0085 21.724 0.0781517
5 17.6507 20.3663 1.44641
5 20.3663 23.0818 1.49943
5 21.724 19.0085 0.0729903
5 24.4395 21.724 0.0643199
5 23.0817 20.3663 1.44338
5 25.7973 23.0818 1.43578
5 27.155 19.0085 0.113391
5 29.8705 21.724 0.0910919
5 28.5128 20.3663 1.44486
5 31.2282 23.0818 1.41612
5 32.586 19.0085 0.0942093
5 35.3015 21.724 0.134152
5 33.9438 20.3663 1.47964
5 36.6593 23.0818 1.48442
5 38.017 19.0085 -0.0915324
5 40.7325 21.724 -0.0843803
5 39.3747 20.3663 1.28708
5 42.0902 23.0818 1.31284
5 43.448 19.0085 -0.0153745
5 46.1635 21.724 -0.00254269
5 44.8058 20.3663 1.36298
5 47.5213 23.0818 1.37264
1 48.9245 18.7071 -0.154691
1 51.6022 21.0376 0.0673194
1 50.1921 19.9126 1.52679
1 52.9231 22.1871 1.5274
1 54.3682 17.613 0.095293
1 57.1117 20.2784 0.0404981
1 55.7159 18.9405 1.46323
1 58.3783 21.5245 1.48216
1 59.5468 17.1548 0.154611
1 62.3046 19.7025 0.0784876
1 60.9644 18.4839 1.53682
1 63.6692 21.0894 1.42034
1 65.0169 16.7356 0.0800379
1 67.6709 19.4211 0.162874
1 66.2976 18.1035 1.54402
1 69.2121 20.7382 1.46631
1 70.459 16.4611 0.0455347
1 73.274 19.3765 0.145219
1 71.7902 17.9004 1.4118
1 74.5917 20.658 1.57034
1 75.8361 16.4807 0.148093
1 78.574 19.2377 0.107271
1 77.1902 17.836 1.4986
1 80.064 20.5861 1.46305
1 81.2827 16.4151 0.0772635
1 84.1353 19.2141 0.153853
1 82.7186 17.8384 1.48439
1 85.5167 20.5241 1.46699
1 86.8904 16.5266 0.147513
1 89.6481 19.2956 0.203565
1 88.2385 17.8977 1.6067
1 90.9642 20.5204 1.65732
1 92.3377 16.4498 0.1401
1 95.1286 19.1834 0.199028
1 93.7367 17.8439 1.49778
1 96.3755 20.5244 1.51148
1 97.5796 16.2904 0.253267
1 100.499 18.9906 0.254399
1 99.0301 17.6556 1.51101
1 101.922 20.3563 1.4988
1 103.194 16.2538 0.0655883
1 105.833 19.0631 -0.0170399
1 104.539 17.6316 1.34995
1 107.155 20.354 1.39011
1 108.577 16.2362 -0.0228825
5 0 24.4395 0.0148145
5 2.7155 27.155 0.104191
5 1.35775 25.7973 1.42655
5 4.07325 28.5128 1.46704
5 5.431 24.4395 0.0198245
5 8.1465 27.155 0.0958405
5 6.78875 25.7973 1.4123
5 9.50425 28.5128 1.37623
5 10.862 24.4395 -0.0333202
5 13.5775 27.155 -0.0406121
5 12.2197 25.7973 1.33511