1661
 Atoms. Timestep: 5000
5 0 2.7155 -2.7155
5 2.7155 0 -2.7155
5 1.35775 4.07325 -1.35775
5 4.07325 1.35775 -1.35775
5 5.431 2.7155 -2.7155
5 8.1465 0 -2.7155
5 6.78875 4.07325 -1.35775
5 9.50425 1.35775 -1.35775
5 10.862 2.7155 -2.7155
5 13.5775 0 -2.7155
5 12.2197 4.07325 -1.35775
5 14.9352 1.35775 -1.35775
5 16.293 2.7155 -2.7155
5 19.0085 0 -2.7155
5 17.6507 4.07325 -1.35775
5 20.3663 1.35775 -1.35775
5 21.724 2.7155 -2.7155
5 24.4395 0 -2.7155
5 23.0817 4.07325 -1.35775
5 25.7973 1.35775 -1.35775
5 27.155 2.7155 -2.7155
5 29.8705 0 -2.7155
5 28.5128 4.07325 -1.35775
5 31.2282 1.35775 -1.35775
5 32.586 2.7155 -2.7155
5 35.3015 0 -2.7155
5 33.9438 4.07325 -1.35775
5 36.6593 1.35775 -1.35775
5 38.017 2.7155 -2.7155
5 40.7325 0 -2.7155
5 39.3747 4.07325 -1.35775
5 42.0902 1.35775 -1.35775
5 43.448 2.7155 -2.7155
5 46.1635 0 -2.7155
5 44.8058 4.07325 -1.35775
5 47.5213 1.35775 -1.35775
4 48.879 2.7155 -2.7155
4 51.5945 0 -2.7155
4 50.2368 4.07325 -1.35775
4 52.9522 1.35775 -1.35775
4 54.31 2.7155 -2.7155
4 57.0255 0 -2.7155
4 55.6677 4.07325 -1.35775
4 58.3833 1.35775 -1.35775
4 59.741 2.7155 -2.7155
4 62.4565 0 -2.7155
4 61.0988 4.07325 -1.35775
4 63.8143 1.35775 -1.35775
4 65.172 2.7155 -2.7155
4 67.8875 0 -2.7155
4 66.5298 4.07325 -1.35775
4 69.2452 1.35775 -1.35775
4 70.603 2.7155 -2.7155
4 73.3185 0 -2.7155
4 71.9608 4.07325 -1.35775
4 74.6762 1.35775 -1.35775
4 76.034 2.7155 -2.7155
4 78.7495 0 -2.7155
4 77.3918 4.07325 -1.35775
4 80.1073 1.35775 -1.35775
4 81.465 2.7155 -2.7155
4 84.1805 0 -2.7155
4 82.8227 4.07325 -1.35775
4 85.5383 1.35775 -1.35775
4 86.896 2.7155 -2.7155
4 89.6115 0 -2.7155
4 88.2537 4.07325 -1.35775
4 90.9693 1.35775 -1.35775
4 92.327 2.7155 -2.7155
4 95.0425 0 -2.7155
4 93.6847 4.07325 -1.35775
4 96.4002 1.35775 -1.35775
4 97.758 2.7155 -2.7155
4 100.474 0 -2.7155
4 99.1158 4.07325 -1.35775
4 101.831 1.35775 -1.35775
4 103.189 2.7155 -2.7155
4 105.904 0 -2.7155
4 104.547 4.07325 -1.35775
4 107.262 1.35775 -1.35775
4 108.62 2.7155 -2.7155
5 0 8.1465 2.73023
5 2.7155 5.431 -2.7155
5 1.35775 9.50425 -1.35272
5 4.07325 6.78875 -1.35775
5 5.431 8.1465 2.76356
5 8.1465 5.431 -2.7155
5 6.78875 9.50425 -1.3259
5 9.50425 6.78875 -1.35775
5 10.862 8.1465 -2.72247
5 13.5775 5.431 -2.7155
5 12.2197 9.50425 -1.39411
5 14.9352 6.78875 -1.35775
5 16.293 8.1465 -2.74866
5 19.0085 5.431 -2.7155
5 17.6507 9.50425 -1.38373
5 20.3663 6.78875 -1.35775
5 21.724 8.1465 -2.71619
5 24.4395 5.431 -2.7155
5 23.0817 9.50425 -1.29111
5 25.7973 6.78875 -1.35775
5 27.155 8.1465 2.82607
5 29.8705 5.431 -2.7155
5 28.5128 9.50425 -1.23223
5 31.2282 6.78875 -1.35775
5 32.586 8.1465 -2.68751
5 35.3015 5.431 -2.7155
5 33.9438 9.50425 -1.32403
5 36.6593 6.78875 -1.35775
5 38.017 8.1465 -2.75219
5 40.7325 5.431 -2.7155
5 39.3747 9.50425 -1.38747
5 42.0902 6.78875 -1.35775
5 43.448 8.1465 2.65569
5 46.1635 5.431 -2.7155
5 44.8058 9.50425 -1.49569
5 47.5213 6.78875 -1.35775
1 48.8613 8.15102 2.71831
4 51.5945 5.431 -2.7155
1 50.2678 9.58467 -1.30282
4 52.9522 6.78875 -1.35775
1 54.3088 8.2666 -2.71648
4 57.0255 5.431 -2.7155
1 55.7109 9.55538 -1.42534
4 58.3833 6.78875 -1.35775
1 59.8157 8.1079 2.70566
4 62.4565 5.431 -2.7155
1 61.1757 9.57867 -1.38689
4 63.8143 6.78875 -1.35775
1 65.1176 8.21462 2.71707
4 67.8875 5.431 -2.7155
1 66.5204 9.55227 -1.35797
4 69.2452 6.78875 -1.35775
1 70.5513 8.24511 2.702
4 73.3185 5.431 -2.7155
1 71.9772 9.58811 -1.34548
4 74.6762 6.78875 -1.35775
1 76.0625 8.18678 -2.67924
4 78.7495 5.431 -2.7155
1 77.492 9.48403 -1.30059
4 80.1073 6.78875 -1.35775
1 81.5487 8.15526 -2.68459
4 84.1805 5.431 -2.7155
1 82.9177 9.52222 -1.39062
4 85.5383 6.78875 -1.35775
1 86.8915 8.1361 2.76957
4 89.6115 5.431 -2.7155
1 88.3828 9.53192 -1.38803
4 90.9693 6.78875 -1.35775
1 92.3198 8.11862 -2.6483
4 95.0425 5.431 -2.7155
1 93.725 9.44987 -1.30619
4 96.4002 6.78875 -1.35775
1 97.7601 8.03685 2.75555
4 100.474 5.431 -2.7155
1 99.1291 9.43577 -1.39459
4 101.831 6.78875 -1.35775
1 103.212 8.13781 -2.69108
4 105.904 5.431 -2.7155
1 104.593 9.59733 -1.34223
4 107.262 6.78875 -1.35775
1 108.807 7.81928 2.60304
5 0 13.5775 2.61378
5 2.7155 10.862 -2.77098
5 1.35775 14.9352 -1.44927
5 4.07325 12.2197 -1.37953
5 5.431 13.5775 2.64923
5 8.1465 10.862 -2.7099
5 6.78875 14.9352 -1.42778
5 9.50425 12.2197 -1.3783
5 10.862 13.5775 -2.7612
5 13.5775 10.862 2.72538
5 12.2197 14.9352 -1.33378
5 14.9352 12.2197 -1.33868
5 16.293 13.5775 2.78353
5 19.0085 10.862 -2.72585
5 17.6507 14.9352 -1.34522
5 20.3663 12.2197 -1.31289
5 21.724 13.5775 -2.64141
5 24.4395 10.862 -2.61027
5 23.0817 14.9352 -1.29199
5 25.7973 12.2197 -1.25829
5 27.155 13.5775 -2.63292
5 29.8705 10.862 -2.56825
5 28.5128 14.9352 -1.28893
5 31.2282 12.2197 -1.20865
5 32.586 13.5775 -2.59903
5 35.3015 10.862 -2.72271
5 33.9438 14.9352 -1.25438
5 36.6593 12.2197 -1.39324
5 38.017 13.5775 -2.70024
5 40.7325 10.862 2.67441
5 39.3747 14.9352 -1.37915
5 42.0902 12.2197 -1.43709
5 43.448 13.5775 -2.77276
5 46.1635 10.862 2.61839
5 44.8058 14.9352 -1.39183
5 47.5213 12.2197 -1.32621
1 48.8762 13.6068 -2.68592
1 51.5968 10.9501 -2.64589
1 50.2556 14.9665 -1.28061
1 52.935 12.246 -1.31478
1 54.3458 13.5693 2.72782
1 57.0929 10.9044 -2.75265
1 55.7292 14.8806 -1.32446
1 58.4374 12.2195 -1.28555
1 59.7739 13.6978 -2.66949
1 62.5656 10.9552 -2.73883
1 61.1875 15.093 -1.37899
1 63.8406 12.356 -1.27637
1 65.1895 13.6505 2.82013
1 67.9402 10.8858 -2.66515
1 66.6431 14.9773 -1.25905
1 69.359 12.1918 -1.33512
1 70.6818 13.5896 -2.66431
1 73.3706 10.7351 -2.80905
1 72.002 15.0028 -1.37793
1 74.5925 12.0914 -1.39738
1 75.98 13.5466 2.74242
1 78.8005 10.8775 -2.7271
1 77.3825 14.9218 -1.39679
1 80.1695 12.2202 -1.3221
1 81.5509 13.5879 -2.64693
1 84.3117 10.825 -2.71725
1 82.901 14.9049 -1.27247
1 85.629 12.1498 -1.26506
1 86.9223 13.6469 -2.53273
1 89.7449 10.9568 -2.6039
1 88.3601 15.002 -1.2391
1 91.0152 12.2566 -1.09285
1 92.3533 13.5657 -2.56148
1 95.0825 10.8332 2.76073
1 93.708 15.0983 -1.32441
1 96.4321 12.2381 -1.34167
1 97.8314 13.6558 -2.73325
1 100.618 10.8553 -2.6225
1 99.1492 15.0395 -1.31727
1 101.874 12.2948 -1.27737
1 103.38 13.5725 -2.62555
1 106.054 10.7776 2.68478
1 104.798 14.957 -1.36919
1 107.497 12.2382 -1.61631
1 108.934 13.4982 2.47111
5 0 19.0085 2.70792
5 2.7155 16.293 2.71197
5 1.35775 20.3663 -1.35833
5 4.07325 17.6507 -1.33678
5 5.431 19.0085 2.81136
5 8.1465 16.293 -2.75849
5 6.78875 20.3663 -1.31288
5 9.50425 17.6507 -1.34605
5 10.862 19.0085 -2.71556
5 13.5775 16.293 2.76687
5 12.2197 20.3663 -1.34832
5 14.9352 17.6507 -1.34208
5 16.293 19.0085 -2.73684
5 19.0085 16.293 2.74283
5 17.6507 20.3663 -1.39923
5 20.3663 17.6507 -1.37148
5 21.724 19.0085 -2.68553
5 24.4395 16.293 -2.6144
5 23.0817 20.3663 -1.32216
5 25.7973 17.6507 -1.22529
5 27.155 19.0085 -2.59858
5 29.8705 16.293 2.79447
5 28.5128 20.3663 -1.33047
5 31.2282 17.6507 -1.31285
5 32.586 19.0085 -2.68266
5 35.3015 16.293 -2.60134
5 33.9438 20.3663 -1.3069
5 36.6593 17.6507 -1.28574
5 38.017 19.0085 -2.66192
5 40.7325 16.293 -2.74659
5 39.3747 20.3663 -1.24585
5 42.0902 17.6507 -1.34265
5 43.448 19.0085 -2.6843
5 46.1635 16.293 -2.72588
5 44.8058 20.3663 -1.29589
5 47.5213 17.6507 -1.36438
1 48.8574 18.9951 -2.72773
1 51.6842 16.3454 -2.61571
1 50.2314 20.2786 -1.30422
1 53.0567 17.586 -1.28249
1 54.3462 18.861 -2.69032
1 57.1097 16.2727 -2.60683
1 55.7985 20.1882 -1.423
1 58.4759 17.6649 -1.29445
1 59.8435 18.9739 -2.54328
1 62.5294 16.3733 -2.7121
1 61.1795 20.4684 -1.27232
1 63.913 17.7822 -1.26273
1 65.2535 19.1067 -2.61579
1 67.9722 16.4467 -2.56705
1 66.616 20.5303 -1.29923
1 69.3964 17.9351 -1.26063
1 70.7978 19.1482 -2.67878
1 73.4088 16.3112 -2.74377
1 72.1646 20.4802 -1.22892
1 74.8102 17.7397 -1.40839
1 76.2134 19.1411 -2.7354
1 78.7437 16.3753 -2.68159
1 77.4854 20.4986 -1.27006
1 80.1962 17.7364 -1.3142
1 81.535 19.1527 -2.68386
1 84.2009 16.3345 -2.50008
1 82.8546 20.3895 -1.27263
1 85.5204 17.6633 -1.14458
1 87.0268 19.1055 -2.59689
1 89.6901 16.3521 -2.54117
1 88.2749 20.3428 -1.19218
1 91.018 17.667 -1.11803
1 92.4152 19.0191 -2.45891
1 95.1784 16.3698 -2.66983
1 93.7208 20.4938 -1.1653
1 96.4407 17.7156 -1.26768
1 97.849 19.0447 -2.58746
1 100.629 16.348 -2.58794
1 99.1488 20.2962 -1.2173
1 102.064 17.581 -1.15543
1 103.351 18.9445 -2.59551
1 106.221 16.3007 2.62984
1 104.815 20.3661 -1.31192
1 107.458 17.5989 -1.41223
1 108.885 19.059 -2.60195
5 0 24.4395 2.73218
5 2.7155 21.724 2.71591
5 1.35775 25.7973 -1.31134
5 4.07325 23.0817 -1.32797
5 5.431 24.4395 -2.68953
5 8.1465 21.724 -2.71927
5 6.78875 25.7973 -1.31058
5 9.50425 23.0817 -1.33558
5 10.862 24.4395 -2.73181
5 13.5775 21.724 -2.72331
5 12.2197 25.7973 -1.33496
5 14.9352 23.0817 -1.35317
5 16.293 24.4395 -2.64789
5 19.0085 21.724 -2.71855
5 17.6507 25.7973 -1.3166
5 20.3663 23.0817 -1.34773
5 21.724 24.4395 -2.72727
5 24.4395 21.724 -2.66024
5 23.0817 25.7973 -1.31069
5 25.7973 23.0817 -1.32974
5 27.155 24.4395 -2.7443
5 29.8705 21.724 -2.72715
5 28.5128 25.7973 -1.34348
5 31.2282 23.0817 -1.31458
5 32.586 24.4395 -2.62231
5 35.3015 21.724 -2.68021
5 33.9438 25.7973 -1.23605
5 36.6593 23.0817 -1.3025
5 38.017 24.4395 -2.64545
5 40.7325 21.724 -2.56908
5 39.3747 25.7973 -1.29971
5 42.0902 23.0817 -1.23864
5 43.448 24.4395 -2.59438
5 46.1635 21.724 -2.68175
5 44.8058 25.7973 -1.25935
5 47.5213 23.0817 -1.30255
1 48.8958 24.4719 -2.65671
1 51.6681 21.579 2.68022
1 50.221 25.8142 -1.30953
1 52.9479 22.9105 -1.37648
1 54.2124 24.2538 2.66375
1 57.0657 21.7169 -2.74802
1 55.5819 25.6146 -1.30094
1 58.3683 23.0215 -1.30885
1 59.6718 24.3772 2.84477
1 62.5286 21.7864 -2.60128
1 61.1112 25.7574 -1.28309
1 63.924 23.118 -1.24499
1 65.2159 24.526 2.80406
1 67.9936 21.8425 -2.6285
1 66.6589 25.8469 -1.32221
1 69.4213 23.2268 -1.35675
1 70.8103 24.6131 2.7714
1 73.4464 21.9035 -2.70689
1 72.1037 26.0922 -1.33166
1 74.8386 23.185 -1.30034
1 76.1273 24.5508 -2.63907
1 78.8106 21.8698 -2.58387
1 77.5097 25.8546 -1.24836
1 80.1913 23.193 -1.27078
1 81.575 24.4655 -2.69331
1 84.2056 21.7773 -2.51763
1 82.7665 25.8632 -1.23631
1 85.5537 23.2031 -1.23413
1 86.8452 24.4833 -2.55559
1 89.6106 21.7945 -2.5047
1 88.1257 25.8093 -1.1749
1 90.9293 23.1153 -1.17659
1 92.2617 24.3881 -2.60004
1 95.0694 21.7259 -2.53905
1 93.5912 25.761 -1.25654
1 96.3372 23.0575 -1.09235
1 97.698 24.3592 -2.49873
1 100.514 21.7222 -2.55691
1 99.0604 25.711 -1.26669
1 101.834 23.0167 -1.17972
1 103.174 24.2674 -2.61925
1 106.235 21.7184 -2.71438
1 104.544 25.7178 -1.31871
1 107.505 22.9933 -1.19576
1 108.812 24.4805 -2.42114
5 0 29.8705 -2.67773
5 2.7155 27.155 -2.62215
5 1.35775 31.2282 -1.3007
5 4.07325 28.5128 -1.24542
5 5.431 29.8705 -2.63009
5 8.1465 27.155 -2.69094
5 6.78875 31.2282 -1.28582
5 9.50425 28.5128 -1.31395
5 10.862 29.8705 -2.57297
5 13.5775 27.155 -2.60705
5 12.2197 31.2282 -1.26604
5 14.9352 28.5128 -1.29981
5 16.293 29.8705 -2.64745
5 19.0085 27.155 -2.69128
5 17.6507 31.2282 -1.26891
5 20.3663 28.5128 -1.33111
5 21.724 29.8705 -2.67253
5 24.4395 27.155 -2.67692
5 23.0817 31.2282 -1.26506
5 25.7973 28.5128 -1.27526
5 27.155 29.8705 -2.64034
5 29.8705 27.155 -2.64149
5 28.5128 31.2282 -1.29688
5 31.2282 28.5128 -1.28568
5 32.586 29.8705 -2.64804
5 35.3015 27.155 -2.63455
5 33.9438 31.2282 -1.26648
5 36.6593 28.5128 -1.27906
5 38.017 29.8705 -2.65019
5 40.7325 27.155 -2.65443
5 39.3747 31.2282 -1.30034
5 42.0902 28.5128 -1.27257
5 43.448 29.8705 -2.63225
5 46.1635 27.155 -2.67774
5 44.8058 31.2282 -1.27395
5 47.5213 28.5128 -1.29366
1 48.8649 29.8954 -2.61028
1 51.506 27.2192 -2.62317
1 50.186 31.2463 -1.2072
1 52.8489 28.4856 -1.18665
1 54.2356 29.8516 -2.63605
1 56.9716 27.112 -2.55353
1 55.5098 31.1693 -1.24178
1 58.3143 28.4472 -1.18287
1 59.6304 29.8661 -2.68742
1 62.5146 27.1235 -2.6394
1 61.1437 31.1383 -1.32445
1 63.8635 28.49 -1.34369
1 65.2463 29.9127 -2.67036
1 67.9661 27.2004 2.74581
1 66.6436 31.2922 -1.3029
1 69.2472 28.6707 -1.39302
1 70.7995 30.0223 -2.58614
1 73.4501 27.4046 -2.73407
1 72.0563 31.4232 -1.19686
1 74.7926 28.6815 -1.31983
1 76.0786 30.1319 -2.64472
1 78.8068 27.2985 -2.67814
1 77.3788 31.3977 -1.19532
1 80.115 28.537 -1.18339
1 81.3556 30.0474 -2.57503
1 84.1136 27.2689 -2.54058
1 82.7083 31.397 -1.16779
1 85.4959 28.5636 -1.18238
1 86.9186 29.8908 -2.49495
1 89.5411 27.1221 -2.58669
1 88.262 31.3613 -1.10682
1 90.9128 28.4938 -1.24109
1 92.3053 29.9031 -2.63222
1 95.0609 27.0645 -2.56884
1 93.6144 31.1998 -1.26439
1 96.4191 28.396 -1.20044
1 97.7493 29.7995 -2.57078
1 100.536 27.0997 -2.68465
1 99.0998 31.1111 -1.1529
1 101.876 28.3015 -1.29437
1 103.121 29.6936 -2.60346
1 106.044 27.1335 -2.67692
1 104.426 31.0987 -1.25122
1 107.279 28.4428 -1.25762
1 108.587 30.0075 2.84643
5 0 35.3015 -2.66594
5 2.7155 32.586 -2.66339
5 1.35775 36.6593 -1.31535
5 4.07325 33.9438 -1.27378
5 5.431 35.3015 2.79704
5 8.1465 32.586 -2.6551
5 6.78875 36.6593 -1.30675
5 9.50425 33.9438 -1.288
5 10.862 35.3015 -2.69924
5 13.5775 32.586 -2.61968
5 12.2197 36.6593 -1.30792
5 14.9352 33.9438 -1.23479
5 16.293 35.3015 -2.54965
5 19.0085 32.586 -2.55136
5 17.6507 36.6593 -1.10258
5 20.3663 33.9438 -1.18206
5 21.724 35.3015 -2.5727
5 24.4395 32.586 -2.65388
5 23.0817 36.6593 -1.24436
5 25.7973 33.9438 -1.25549
5 27.155 35.3015 -2.55245
5 29.8705 32.586 -2.59271
5 28.5128 36.6593 -1.19287
5 31.2282 33.9438 -1.22186
5 32.586 35.3015 -2.6294
5 35.3015 32.586 -2.67216
5 33.9438 36.6593 -1.28066
5 36.6593 33.9438 -1.32456
5 38.017 35.3015 -2.71679
5 40.7325 32.586 2.7776
5 39.3747 36.6593 -1.30851
5 42.0902 33.9438 -1.30407
5 43.448 35.3015 -2.61122
5 46.1635 32.586 -2.61056
5 44.8058 36.6593 -1.27226
5 47.5213 33.9438 -1.20295
1 48.8576 35.2931 -2.58674
1 51.6586 32.5775 -2.49259
1 50.1804 36.6102 -1.18987
1 53.0339 34.0451 -1.26911
1 54.3395 35.3288 -2.70897
1 56.8684 32.5385 -2.6495
1 55.6583 36.6364 -1.22238
1 58.3069 33.8862 -1.38927
1 59.7904 35.1845 -2.73892
1 62.5267 32.5112 -2.64238
1 61.062 36.6724 -1.34813
1 63.8861 33.9695 -1.30186
1 65.2082 35.3877 2.76315
1 67.9721 32.7404 -2.70382
1 66.5899 36.7534 -1.37238
1 69.3303 34.1181 -1.30407
1 70.6858 35.4765 -2.68413
1 73.3811 32.7627 -2.64856
1 72.0628 36.8235 -1.26645
1 74.6335 34.1049 -1.27642
1 76.0166 35.5377 -2.58875
1 78.6941 32.8012 -2.64256
1 77.3084 36.8454 -1.19416
1 80.0358 34.1793 -1.29662
1 81.5525 35.5182 -2.55014
1 84.1851 32.6786 -2.48981
1 82.8723 36.7661 -1.09226
1 85.547 33.9834 -1.09813
1 87.0414 35.3956 -2.49219
1 89.6064 32.5739 -2.55357
1 88.3836 36.7349 -1.18084
1 90.9804 33.9378 -1.27662
1 92.4618 35.3375 -2.5692
1 94.9526 32.5241 -2.6088
1 93.8302 36.6678 -1.27439
1 96.3483 33.7842 -1.21578
1 97.7741 35.2721 -2.45868
1 100.51 32.3465 -2.56115
1 99.2369 36.6931 -1.15886
1 101.86 33.8262 -1.21294
1 103.146 35.2927 -2.60139
1 105.777 32.4628 -2.63324
1 104.466 36.6536 -1.23537
1 107.185 33.9473 -1.37706
1 108.434 35.3082 -2.65778
5 0 40.7325 -2.66714
5 2.7155 38.017 -2.66433
5 1.35775 42.0902 -1.41346
5 4.07325 39.3747 -1.32456
5 5.431 40.7325 -2.65154
5 8.1465 38.017 -2.65675
5 6.78875 42.0902 -1.27713
5 9.50425 39.3747 -1.33261
5 10.862 40.7325 -2.62428
5 13.5775 38.017 -2.60519
5 12.2197 42.0902 -1.18973
5 14.9352 39.3747 -1.17546
5 16.293 40.7325 -2.5992
5 19.0085 38.017 -2.52487
5 17.6507 42.0902 -1.28624
5 20.3663 39.3747 -1.25846
5 21.724 40.7325 -2.59097
5 24.4395 38.017 -2.59441
5 23.0817 42.0902 -1.24017
5 25.7973 39.3747 -1.23399
5 27.155 40.7325 -2.58925
5 29.8705 38.017 -2.60502
5 28.5128 42.0902 -1.2513
5 31.2282 39.3747 -1.30139
5 32.586 40.7325 -2.56256
5 35.3015 38.017 -2.63343
5 33.9438 42.0902 -1.23503
5 36.6593 39.3747 -1.2042
5 38.017 40.7325 -2.58836
5 40.7325 38.017 -2.68953
5 39.3747 42.0902 -1.17245
5 42.0902 39.3747 -1.23095
5 43.448 40.7325 -2.61717
5 46.1635 38.017 -2.58473
5 44.8058 42.0902 -1.24766
5 47.5213 39.3747 -1.22485
1 48.8958 40.7317 -2.56554
1 51.5421 37.9882 -2.55342
1 50.2344 41.9908 -1.26177
1 52.9956 39.318 -1.38346
1 54.3337 40.6378 2.68827
1 57.0309 37.9328 -2.6381
1 55.6416 41.8792 -1.32767
1 58.3648 39.3362 -1.30717
1 59.7782 40.6584 -2.63011
1 62.4705 38.0785 -2.63029
1 61.0284 42.035 -1.20303
1 63.8668 39.4101 -1.30716
1 65.2697 40.7795 -2.64754
1 67.9312 38.1374 -2.67583
1 66.4374 42.1235 -1.10015
1 69.2934 39.3009 -1.18881
1 70.5437 40.8125 -2.50749
1 73.391 38.261 -2.46575
1 71.8754 42.1926 -1.14242
1 74.7272 39.6259 -1.21147
1 76.0749 40.9023 -2.55878
1 78.6789 38.1003 -2.49607
1 77.3526 42.1842 -1.1108
1 80.1315 39.4668 -1.22997
1 81.5586 40.6919 -2.54447
1 84.1744 38.0402 -2.46703
1 82.9211 42.0367 -1.23097
1 85.5852 39.4689 -1.25606
1 87.0011 40.7411 -2.66324
1 89.7088 38.0244 -2.68807
1 88.3961 42.159 -1.39047
1 91.0629 39.3589 -1.42162
1 92.4579 40.7533 2.70737
1 95.1632 37.9834 -2.74887
1 93.7912 42.1476 -1.30836
1 96.5044 39.356 -1.32715
1 97.9219 40.6578 2.84587
1 100.504 37.9299 -2.67229
1 99.3347 42.0426 -1.28618
1 101.854 39.2625 -1.25406
1 103.263 40.6475 -2.56384
1 105.881 37.9335 -2.65268
1 104.735 41.9085 -1.17819
1 107.218 39.2109 -1.22658
1 108.714 40.5054 -2.59802
5 0 46.1635 -2.70068
5 2.7155 43.448 2.75249
5 1.35775 47.5213 -1.26683
5 4.07325 44.8058 -1.28164
5 5.431 46.1635 -2.57869
5 8.1465 43.448 -2.60379
5 6.78875 47.5213 -1.19625
5 9.50425 44.8058 -1.17351
5 10.862 46.1635 -2.56742
5 13.5775 43.448 -2.63873
5 12.2197 47.5213 -1.23246
5 14.9352 44.8058 -1.20333
5 16.293 46.1635 -2.59566
5 19.0085 43.448 -2.63625
5 17.6507 47.5213 -1.24412
5 20.3663 44.8058 -1.3336
5 21.724 46.1635 -2.6532
5 24.4395 43.448 -2.59249
5 23.0817 47.5213 -1.30618
5 25.7973 44.8058 -1.21339
5 27.155 46.1635 -2.55122
5 29.8705 43.448 -2.5171
5 28.5128 47.5213 -1.2076
5 31.2282 44.8058 -1.17716
5 32.586 46.1635 -2.59013
5 35.3015 43.448 -2.59641
5 33.9438 47.5213 -1.19075
5 36.6593 44.8058 -1.19701
5 38.017 46.1635 -2.57859
5 40.7325 43.448 -2.52667
5 39.3747 47.5213 -1.23118
5 42.0902 44.8058 -1.20904
5 43.448 46.1635 -2.56301
5 46.1635 43.448 -2.61849
5 44.8058 47.5213 -1.16139
5 47.5213 44.8058 -1.29634
1 48.9019 46.1262 -2.6379
1 51.596 43.2943 2.69753
1 50.2432 47.4324 -1.37092
1 52.8192 44.6939 -1.28236
1 54.2461 46.0126 -2.62302
1 56.8563 43.3808 -2.65512
1 55.5636 47.3702 -1.26176
1 58.3609 44.6855 -1.31013
1 59.6504 46.0266 -2.71881
1 62.4112 43.3698 -2.53451
1 61.0213 47.3943 -1.31667
1 63.7433 44.7729 -1.19463
1 65.0862 46.1076 -2.5554
1 67.8406 43.4263 -2.48309
1 66.4648 47.4706 -1.09544
1 69.2726 44.9217 -1.07702
1 70.574 46.2264 -2.51036
1 73.2485 43.6511 -2.48751
1 72.0319 47.6506 -1.19743
1 74.6932 44.9948 -1.17688
1 76.0755 46.3125 -2.52707
1 78.7536 43.4369 -2.55911
1 77.4285 47.5837 -1.1702
1 80.1807 44.7039 -1.25035
1 81.5732 46.1596 -2.571
1 84.2932 43.495 -2.58591
1 82.9386 47.5291 -1.14377
1 85.6847 44.8228 -1.31647
1 87.0372 46.1982 -2.68517
1 89.744 43.5144 2.81242
1 88.5152 47.4822 -1.31796
1 91.2941 44.7352 -1.27972
1 92.5032 46.0798 -2.73649
1 95.2372 43.4383 -2.65299
1 93.8912 47.3949 -1.35335
1 96.6263 44.6855 -1.31922
1 98.0599 46.0059 -2.6663
1 100.711 43.3914 -2.61111
1 99.3102 47.4355 -1.21447
1 102.159 44.8017 -1.28971
1 103.554 46.1483 -2.58206
1 106.08 43.2923 -2.63733
1 104.95 47.4078 -1.14743
1 107.422 44.5581 -1.22989
1 108.885 45.9216 -2.44696
5 0 51.5945 -2.69884
5 2.7155 48.879 -2.65088
5 1.35775 52.9522 -1.3425
5 4.07325 50.2368 -1.23791
5 5.431 51.5945 -2.61979
5 8.1465 48.879 -2.55336
5 6.78875 52.9522 -1.26371
5 9.50425 50.2368 -1.23698
5 10.862 51.5945 -2.63331
5 13.5775 48.879 -2.5819
5 12.2197 52.9522 -1.33797
5 14.9352 50.2368 -1.26716
5 16.293 51.5945 -2.56981
5 19.0085 48.879 -2.63625
5 17.6507 52.9522 -1.22356
5 20.3663 50.2368 -1.29332
5 21.724 51.5945 -2.59049
5 24.4395 48.879 -2.61004
5 23.0817 52.9522 -1.21093
5 25.7973 50.2368 -1.2236
5 27.155 51.5945 -2.61341
5 29.8705 48.879 -2.60957
5 28.5128 52.9522 -1.23261
5 31.2282 50.2368 -1.20873
5 32.586 51.5945 -2.67011
5 35.3015 48.879 -2.57747
5 33.9438 52.9522 -1.35381
5 36.6593 50.2368 -1.29914
5 38.017 51.5945 -2.57527
5 40.7325 48.879 -2.60917
5 39.3747 52.9522 -1.2193
5 42.0902 50.2368 -1.19626
5 43.448 51.5945 -2.57183
5 46.1635 48.879 -2.49624
5 44.8058 52.9522 -1.34435
5 47.5213 50.2368 -1.19313
1 48.8557 51.5336 -2.64101
1 51.539 48.8666 -2.6794
1 50.2401 52.8792 -1.35678
1 52.7955 50.1458 -1.30171
1 54.2365 51.5222 -2.61327
1 56.897 48.8088 -2.61656
1 55.5862 52.8354 -1.27643
1 58.2481 50.0646 -1.24262
1 59.533 51.4277 -2.59332
1 62.3931 48.8014 -2.56692
1 60.8217 52.8282 -1.20406
1 63.6736 50.2654 -1.23798
1 65.0404 51.5605 -2.6211
1 67.7677 48.8255 -2.44731
1 66.4353 52.7292 -1.06124
1 69.2554 50.2136 -1.00256
1 70.5761 51.5907 -2.37489
1 73.3979 49.011 -2.48705
1 71.9851 52.8713 -1.01976
1 74.8485 50.359 -1.09201
1 76.2103 51.6187 -2.55202
1 78.8761 48.9037 -2.48547
1 77.5127 52.9617 -1.19788
1 80.2817 50.2775 -1.17188
1 81.5387 51.7243 -2.57081
1 84.3932 48.9252 -2.5528
1 82.9471 53.0354 -1.19426
1 85.6326 50.3289 -1.20789
1 87.0994 51.5675 -2.64165
1 89.9245 48.8253 -2.62899
1 88.3474 53.0076 -1.17355
1 91.2849 50.1666 -1.30826
1 92.6071 51.5685 -2.56923
1 95.2852 48.784 -2.61599
1 93.9862 52.9115 -1.2057
1 96.7034 50.1037 -1.32267
1 97.9952 51.4906 -2.60822
1 100.699 48.7744 -2.56454
1 99.342 52.8402 -1.17776
1 102.194 50.1313 -1.21754
1 103.535 51.5027 -2.49508
1 106.266 48.7366 -2.50932
1 104.868 52.7778 -1.02478
1 107.619 50.0812 -0.996037
1 108.92 51.4851 -2.2328
5 2.7155 54.31 -2.60306
5 8.1465 54.31 -2.70385
5 13.5775 54.31 -2.73375
5 19.0085 54.31 -2.50715
5 24.4395 54.31 -2.60689
5 29.8705 54.31 -2.58087
5 35.3015 54.31 -2.72871
5 40.7325 54.31 -2.56025
5 46.1635 54.31 -2.74478
1 51.5155 54.2628 -2.79128
1 56.915 54.1972 -2.61651
1 62.4749 54.1753 -2.22336
1 67.8598 54.1638 -2.31253
1 73.2557 54.1903 -2.51292
1 78.9991 54.1845 -2.46787
1 84.5833 54.3416 -2.42976
1 89.7884 54.2872 -2.56734
1 95.2544 54.2622 -2.61979
1 100.641 54.1629 -2.66938
1 106.29 54.1655 -2.24009
5 0 0 0
5 2.7155 2.7155 0
5 1.35775 1.35775 1.35775
5 4.07325 4.07325 1.35775
5 5.431 0 0
5 8.1465 2.7155 0
5 6.78875 1.35775 1.35775
5 9.50425 4.07325 1.35775
5 10.862 0 0
5 13.5775 2.7155 0
5 12.2197 1.35775 1.35775
5 14.9352 4.07325 1.35775
5 16.293 0 0
5 19.0085 2.7155 0
5 17.6507 1.35775 1.35775
5 20.3663 4.07325 1.35775
5 21.724 0 0
5 24.4395 2.7155 0
5 23.0817 1.35775 1.35775
5 25.7973 4.07325 1.35775
5 27.155 0 0
5 29.8705 2.7155 0
5 28.5128 1.35775 1.35775
5 31.2282 4.07325 1.35775
5 32.586 0 0
5 35.3015 2.7155 0
5 33.9438 1.35775 1.35775
5 36.6593 4.07325 1.35775
5 38.017 0 0
5 40.7325 2.7155 0
5 39.3747 1.35775 1.35775
5 42.0902 4.07325 1.35775
5 43.448 0 0
5 46.1635 2.7155 0
5 44.8058 1.35775 1.35775
5 47.5213 4.07325 1.35775
4 48.879 0 0
4 51.5945 2.7155 0
4 50.2368 1.35775 1.35775
4 52.9522 4.07325 1.35775
4 54.31 0 0
4 57.0255 2.7155 0
4 55.6677 1.35775 1.35775
4 58.3833 4.07325 1.35775
4 59.741 0 0
4 62.4565 2.7155 0
4 61.0988 1.35775 1.35775
4 63.8143 4.07325 1.35775
4 65.172 0 0
4 67.8875 2.7155 0
4 66.5298 1.35775 1.35775
4 69.2452 4.07325 1.35775
4 70.603 0 0
4 73.3185 2.7155 0
4 71.9608 1.35775 1.35775
4 74.6762 4.07325 1.35775
4 76.034 0 0
4 78.7495 2.7155 0
4 77.3918 1.35775 1.35775
4 80.1073 4.07325 1.35775
4 81.465 0 0
4 84.1805 2.7155 0
4 82.8227 1.35775 1.35775
4 85.5383 4.07325 1.35775
4 86.896 0 0
4 89.6115 2.7155 0
4 88.2537 1.35775 1.35775
4 90.9693 4.07325 1.35775
4 92.327 0 0
4 95.0425 2.7155 0
4 93.6847 1.35775 1.35775
4 96.4002 4.07325 1.35775
4 97.758 0 0
4 100.474 2.7155 0
4 99.1158 1.35775 1.35775
4 101.831 4.07325 1.35775
4 103.189 0 0
4 105.904 2.7155 0
4 104.547 1.35775 1.35775
4 107.262 4.07325 1.35775
4 108.62 0 0
5 0 5.431 0
5 2.7155 8.1465 -0.0194423
5 1.35775 6.78875 1.35775
5 4.07325 9.50425 1.32778
5 5.431 5.431 0
5 8.1465 8.1465 0.02087
5 6.78875 6.78875 1.35775
5 9.50425 9.50425 1.36221
5 10.862 5.431 0
5 13.5775 8.1465 -0.00383525
5 12.2197 6.78875 1.35775
5 14.9352 9.50425 1.33975
5 16.293 5.431 0
5 19.0085 8.1465 0.000529385
5 17.6507 6.78875 1.35775
5 20.3663 9.50425 1.35389
5 21.724 5.431 0
5 24.4395 8.1465 0.0172475
5 23.0817 6.78875 1.35775
5 25.7973 9.50425 1.43491
5 27.155 5.431 0
5 29.8705 8.1465 0.0532622
5 28.5128 6.78875 1.35775
5 31.2282 9.50425 1.46778
5 32.586 5.431 0
5 35.3015 8.1465 0.0192182
5 33.9438 6.78875 1.35775
5 36.6593 9.50425 1.39683
5 38.017 5.431 0
5 40.7325 8.1465 -0.0720815
5 39.3747 6.78875 1.35775
5 42.0902 9.50425 1.24148
5 43.448 5.431 0
5 46.1635 8.1465 -0.0324804
5 44.8058 6.78875 1.35775
5 47.5213 9.50425 1.30556
4 48.879 5.431 0
1 51.6704 8.1529 0.0679677
4 50.2368 6.78875 1.35775
1 52.9348 9.64266 1.3721
4 54.31 5.431 0
1 57.0397 8.16613 -0.0249591
4 55.6677 6.78875 1.35775
1 58.4219 9.503 1.33865
4 59.741 5.431 0
1 62.4694 8.24322 0.0355376
4 61.0988 6.78875 1.35775
1 63.8624 9.63523 1.32677
4 65.172 5.431 0
1 67.9022 8.15974 -0.0119538
4 66.5298 6.78875 1.35775
1 69.2327 9.58309 1.3828
4 70.603 5.431 0
1 73.2869 8.17957 -0.0224929
4 71.9608 6.78875 1.35775
1 74.7426 9.49443 1.37413
4 76.034 5.431 0
1 78.7595 8.17926 0.0866042
4 77.3918 6.78875 1.35775
1 80.2234 9.48536 1.30788
4 81.465 5.431 0
1 84.1379 8.15068 -0.0112033
4 82.8227 6.78875 1.35775
1 85.5073 9.40018 1.36806
4 86.896 5.431 0
1 89.5752 8.12718 -0.00362507
4 88.2537 6.78875 1.35775
1 90.9592 9.45223 1.40241
4 92.327 5.431 0
1 95.0918 8.13968 0.0207021
4 93.6847 6.78875 1.35775
1 96.4381 9.5114 1.35388
4 97.758 5.431 0
1 100.469 8.1308 -0.0311608
4 99.1158 6.78875 1.35775
1 101.822 9.49013 1.39266
4 103.189 5.431 0
1 105.902 8.1967 0.0465429
4 104.547 6.78875 1.35775
1 107.509 9.40468 1.2837
4 108.62 5.431 0
5 0 10.862 0.010184
5 2.7155 13.5775 -0.0417757
5 1.35775 12.2197 1.35148
5 4.07325 14.9352 1.38423
5 5.431 10.862 -0.0521583
5 8.1465 13.5775 -0.060412
5 6.78875 12.2197 1.29847
5 9.50425 14.9352 1.32106
5 10.862 10.862 -0.0214142
5 13.5775 13.5775 0.0120101
5 12.2197 12.2197 1.31843
5 14.9352 14.9352 1.33652
5 16.293 10.862 -0.00970355
5 19.0085 13.5775 0.0276803
5 17.6507 12.2197 1.32163
5 20.3663 14.9352 1.45918
5 21.724 10.862 -0.0123135
5 24.4395 13.5775 0.089575
5 23.0817 12.2197 1.47045
5 25.7973 14.9352 1.47012
5 27.155 10.862 0.135875
5 29.8705 13.5775 0.105561
5 28.5128 12.2197 1.46475
5 31.2282 14.9352 1.43614
5 32.586 10.862 0.077481
5 35.3015 13.5775 0.066471
5 33.9438 12.2197 1.43847
5 36.6593 14.9352 1.43594
5 38.017 10.862 -0.0103021
5 40.7325 13.5775 0.013015
5 39.3747 12.2197 1.39806
5 42.0902 14.9352 1.34889
5 43.448 10.862 -0.104426
5 46.1635 13.5775 -0.034178
5 44.8058 12.2197 1.25192
5 47.5213 14.9352 1.30903
1 48.9592 10.9353 0.0704016
1 51.6795 13.6034 0.0609618
1 50.2827 12.3253 1.42787
1 53.0336 14.9906 1.41924
1 54.3955 10.9893 -0.0429288
1 57.1232 13.652 0.047929
1 55.702 12.3374 1.34995
1 58.4158 14.9877 1.43515
1 59.8191 10.85 0.0627823
1 62.4925 13.7273 0.0429965
1 61.1309 12.3558 1.36939
1 63.8768 15.0599 1.38907
1 65.282 11.0427 0.0240124
1 67.9677 13.5426 0.0644397
1 66.5872 12.291 1.46787
1 69.314 14.9688 1.47861
1 70.6294 10.8753 0.0386963
1 73.3494 13.5871 0.00497332
1 71.9506 12.2563 1.3388
1 74.7102 14.9943 1.34132
1 76.0882 10.8379 -0.015203
1 78.8374 13.5804 0.0464155
1 77.3913 12.2105 1.37013
1 80.0858 14.959 1.46477
1 81.5465 10.8065 -0.0228528
1 84.2782 13.6891 0.064617
1 82.9123 12.2132 1.34204
1 85.559 15.0525 1.52059
1 86.9164 10.7836 0.0983359
1 89.6246 13.6498 0.155443
1 88.3001 12.29 1.47562
1 90.9937 14.9604 1.52035
1 92.3619 10.839 0.12437
1 95.029 13.5958 -0.018592
1 93.6947 12.2966 1.40184
1 96.4643 15.0426 1.38033
1 97.8595 10.9075 0.00747336
1 100.515 13.6608 0.087708
1 99.2993 12.2352 1.41215
1 101.99 14.887 1.49619
1 103.189 10.8319 -0.00456309
1 106.136 13.4575 -0.110596
1 104.667 12.1298 1.32823
1 107.487 14.8497 1.25991
1 108.775 10.7926 -0.183707
5 0 16.293 -0.0734893
5 2.7155 19.0085 -0.0265961
5 1.35775 17.6507 1.35733
5 4.07325 20.3663 1.34105
5 5.431 16.293 -0.0269968
5 8.1465 19.0085 0.0443543
5 6.78875 17.6507 1.36987
5 9.50425 20.3663 1.34539
5 10.862 16.293 -0.00325905
5 13.5775 19.0085 0.027543
5 12.2197 17.6507 1.36898
5 14.9352 20.3663 1.41775
5 16.293 16.293 0.00667117
5 19.0085 19.0085 -0.0236065
5 17.6507 17.6507 1.35452
5 20.3663 20.3663 1.35991
5 21.724 16.293 0.0576643
5 24.4395 19.0085 0.0644111
5 23.0817 17.6507 1.44015
5 25.7973 20.3663 1.39846
5 27.155 16.293 0.103284
5 29.8705 19.0085 0.0155276
5 28.5128 17.6507 1.418
5 31.2282 20.3663 1.42159
5 32.586 16.293 0.0197572
5 35.3015 19.0085 0.0247052
5 33.9438 17.6507 1.4096
5 36.6593 20.3663 1.41498
5 38.017 16.293 0.0767049
5 40.7325 19.0085 0.0786135
5 39.3747 17.6507 1.42968
5 42.0902 20.3663 1.44834
5 43.448 16.293 0.00339475
5 46.1635 19.0085 -0.00416867
5 44.8058 17.6507 1.32724
5 47.5213 20.3663 1.42586
1 48.8565 16.2871 -0.00759749
1 51.628 18.905 0.0147882
1 50.2797 17.7172 1.34026
1 52.9766 20.1971 1.38948
1 54.4602 16.2139 0.0230628
1 57.1211 18.9772 0.0327993
1 55.801 17.5431 1.39848
1 58.4093 20.3499 1.47201
1 59.7532 16.3181 -0.0545037
1 62.4514 19.0677 0.0722647
1 61.0654 17.6397 1.44954
1 63.9197 20.4163 1.48604
1 65.2914 16.4419 0.0655422
1 67.9731 19.2016 0.0627444
1 66.6621 17.8911 1.45158
1 69.3677 20.5096 1.49273
1 70.7354 16.3608 0.0991482
1 73.4948 19.0374 0.0440588
1 72.1441 17.7144 1.45714
1 74.8632 20.4677 1.40008
1 76.1206 16.3137 -0.00793016
1 78.7816 19.0572 0.0198303
1 77.4539 17.6629 1.31685
1 80.0745 20.4091 1.46106
1 81.5346 16.3652 0.113711
1 84.23 19.0725 0.160214
1 82.8248 17.694 1.51166
1 85.5866 20.4497 1.47891
1 86.9582 16.4062 0.141495
1 89.6803 19.1276 0.15689
1 88.4263 17.7363 1.47535
1 90.9759 20.4546 1.55898
1 92.4543 16.3307 0.26694
1 95.1045 19.063 0.0849533
1 93.7648 17.747 1.55201
1 96.4902 20.3578 1.50278
1 97.8298 16.3882 0.0541399
1 100.72 18.9823 0.139757
1 99.2636 17.6912 1.40595
1 101.973 20.3451 1.54057
1 103.438 16.191 0.0859992
1 106.196 18.9639 0.032061
1 104.744 17.6594 1.30524
1 107.533 20.2909 1.3668
1 108.814 16.1881 -0.0835188
5 0 21.724 -0.09301
5 2.7155 24.4395 0.142817
5 1.35775 23.0817 1.37878
5 4.07325 25.7973 1.42837
5 5.431 21.724 0.0461696
5 8.1465 24.4395 -0.0135821
5 6.78875 23.0817 1.34485
5 9.50425 25.7973 1.4277
5 10.862 21.724 -0.0215573
5 13.5775 24.4395 0.029598
5 12.2197 23.0817 1.36801
5 14.9352 25.7973 1.38919
5 16.293 21.724 0.0444558