1661
 Atoms. Timestep: 10000
5 0 8.1465 -2.7155
5 2.7155 5.431 -2.7155
5 1.35775 9.50425 -1.35775
5 4.07325 6.78875 -1.35775
5 5.431 8.1465 -2.7155
5 8.1465 5.431 -2.7155
5 6.78875 9.50425 -1.35775
5 9.50425 6.78875 -1.35775
5 10.862 8.1465 -2.7155
5 13.5775 5.431 -2.7155
5 12.2197 9.50425 -1.35775
5 14.9352 6.78875 -1.35775
5 16.293 8.1465 -2.7155
5 19.0085 5.431 -2.7155
5 17.6507 9.50425 -1.35775
5 20.3663 6.78875 -1.35775
5 21.724 8.1465 -2.7155
5 24.4395 5.431 -2.7155
5 23.0817 9.50425 -1.35775
5 25.7973 6.78875 -1.35775
5 27.155 8.1465 -2.7155
5 29.8705 5.431 -2.7155
5 28.5128 9.50425 -1.35775
5 31.2282 6.78875 -1.35775
5 32.586 8.1465 -2.7155
5 35.3015 5.431 -2.7155
5 33.9438 9.50425 -1.35775
5 36.6593 6.78875 -1.35775
5 38.017 8.1465 -2.7155
5 40.7325 5.431 -2.7155
5 39.3747 9.50425 -1.35775
5 42.0902 6.78875 -1.35775
5 43.448 8.1465 -2.7155
5 46.1635 5.431 -2.7155
5 44.8058 9.50425 -1.35775
5 47.5213 6.78875 -1.35775
4 48.879 2.7155 -2.7155
4 51.5945 0 -2.7155
4 50.2368 4.07325 -1.35775
4 52.9522 1.35775 -1.35775
4 54.31 2.7155 -2.7155
4 57.0255 0 -2.7155
4 55.6677 4.07325 -1.35775
4 58.3833 1.35775 -1.35775
4 59.741 2.7155 -2.7155
4 62.4565 0 -2.7155
4 61.0988 4.07325 -1.35775
4 63.8143 1.35775 -1.35775
4 65.172 2.7155 -2.7155
4 67.8875 0 -2.7155
4 66.5298 4.07325 -1.35775
4 69.2452 1.35775 -1.35775
4 70.603 2.7155 -2.7155
4 73.3185 0 -2.7155
4 71.9608 4.07325 -1.35775
4 74.6762 1.35775 -1.35775
4 76.034 2.7155 -2.7155
4 78.7495 0 -2.7155
4 77.3918 4.07325 -1.35775
4 80.1073 1.35775 -1.35775
4 81.465 2.7155 -2.7155
4 84.1805 0 -2.7155
4 82.8227 4.07325 -1.35775
4 85.5383 1.35775 -1.35775
4 86.896 2.7155 -2.7155
4 89.6115 0 -2.7155
4 88.2537 4.07325 -1.35775
4 90.9693 1.35775 -1.35775
4 92.327 2.7155 -2.7155
4 95.0425 0 -2.7155
4 93.6847 4.07325 -1.35775
4 96.4002 1.35775 -1.35775
4 97.758 2.7155 -2.7155
4 100.474 0 -2.7155
4 99.1158 4.07325 -1.35775
4 101.831 1.35775 -1.35775
4 103.189 2.7155 -2.7155
4 105.904 0 -2.7155
4 104.547 4.07325 -1.35775
4 107.262 1.35775 -1.35775
4 108.62 2.7155 -2.7155
5 0 13.5775 -2.71543
5 2.7155 10.862 -2.7155
5 1.35775 14.9352 -1.43774
5 4.07325 12.2197 -1.35775
5 5.431 13.5775 2.70864
5 8.1465 10.862 -2.7155
5 6.78875 14.9352 -1.38696
5 9.50425 12.2197 -1.35775
5 10.862 13.5775 2.70796
5 13.5775 10.862 -2.7155
5 12.2197 14.9352 -1.34508
5 14.9352 12.2197 -1.35775
5 16.293 13.5775 2.71168
5 19.0085 10.862 -2.7155
5 17.6507 14.9352 -1.3281
5 20.3663 12.2197 -1.35775
5 21.724 13.5775 -2.69657
5 24.4395 10.862 -2.7155
5 23.0817 14.9352 -1.30956
5 25.7973 12.2197 -1.35775
5 27.155 13.5775 2.69053
5 29.8705 10.862 -2.7155
5 28.5128 14.9352 -1.30363
5 31.2282 12.2197 -1.35775
5 32.586 13.5775 -2.70278
5 35.3015 10.862 -2.7155
5 33.9438 14.9352 -1.39425
5 36.6593 12.2197 -1.35775
5 38.017 13.5775 2.70511
5 40.7325 10.862 -2.7155
5 39.3747 14.9352 -1.34844
5 42.0902 12.2197 -1.35775
5 43.448 13.5775 2.71351
5 46.1635 10.862 -2.7155
5 44.8058 14.9352 -1.28321
5 47.5213 12.2197 -1.35775
1 48.9555 13.8022 -2.33027
4 51.5945 5.431 -2.7155
1 49.7168 10.7097 -0.896289
4 52.9522 6.78875 -1.35775
1 54.0851 8.56499 2.54434
4 57.0255 5.431 -2.7155
1 55.0839 10.0866 -1.17564
4 58.3833 6.78875 -1.35775
1 59.4686 8.248 2.56977
4 62.4565 5.431 -2.7155
1 60.7543 9.81566 -1.36795
4 63.8143 6.78875 -1.35775
1 65.0449 8.30015 2.73794
4 67.8875 5.431 -2.7155
1 66.3584 9.75595 -1.3845
4 69.2452 6.78875 -1.35775
1 70.514 8.24135 2.70745
4 73.3185 5.431 -2.7155
1 71.7606 9.69444 -1.40814
4 74.6762 6.78875 -1.35775
1 76.0275 8.20504 -2.76344
4 78.7495 5.431 -2.7155
1 77.264 9.58341 -1.43935
4 80.1073 6.78875 -1.35775
1 81.3802 8.1541 2.68407
4 84.1805 5.431 -2.7155
1 82.6573 9.50171 -1.397
4 85.5383 6.78875 -1.35775
1 86.8571 8.07556 2.69525
4 89.6115 5.431 -2.7155
1 88.1382 9.51393 -1.41704
4 90.9693 6.78875 -1.35775
1 92.269 8.13548 2.64689
4 95.0425 5.431 -2.7155
1 93.5889 9.61522 -1.48267
4 96.4002 6.78875 -1.35775
1 97.6717 8.20912 2.69814
4 100.474 5.431 -2.7155
1 99.0239 9.48451 -1.3213
4 101.831 6.78875 -1.35775
1 103.139 8.12175 2.74839
4 105.904 5.431 -2.7155
1 104.502 9.50079 -1.3327
4 107.262 6.78875 -1.35775
1 108.531 8.21905 -2.71796
5 0 19.0085 2.63198
5 2.7155 16.293 -2.66834
5 1.35775 20.3663 -1.41954
5 4.07325 17.6508 -1.41133
5 5.431 19.0085 2.69468
5 8.1465 16.293 2.65187
5 6.78875 20.3663 -1.37557
5 9.50425 17.6508 -1.35301
5 10.862 19.0085 -2.70665
5 13.5775 16.293 2.70071
5 12.2197 20.3663 -1.28115
5 14.9352 17.6508 -1.35625
5 16.293 19.0085 -2.66331
5 19.0085 16.293 -2.66278
5 17.6507 20.3663 -1.27732
5 20.3663 17.6508 -1.2992
5 21.724 19.0085 -2.66359
5 24.4395 16.293 -2.70287
5 23.0817 20.3663 -1.19674
5 25.7973 17.6508 -1.26974
5 27.155 19.0085 -2.59502
5 29.8705 16.293 -2.65836
5 28.5128 20.3663 -1.25159
5 31.2282 17.6508 -1.34759
5 32.586 19.0085 -2.65618
5 35.3015 16.293 2.69208
5 33.9438 20.3663 -1.36378
5 36.6593 17.6508 -1.41571
5 38.017 19.0085 2.63976
5 40.7325 16.293 2.70688
5 39.3747 20.3663 -1.47285
5 42.0902 17.6508 -1.3132
5 43.448 19.0085 -2.65676
5 46.1635 16.293 -2.63974
5 44.8058 20.3663 -1.32647
5 47.5213 17.6508 -1.28961
1 48.875 18.6479 2.50444
1 50.9179 12.0407 -2.65206
1 50.4973 19.0704 -0.974049
1 52.2318 13.936 -1.29125
1 53.5982 15.1544 2.66845
1 56.2448 11.4421 2.69462
1 55.0751 16.4753 -1.31237
1 57.7115 12.9849 -1.35043
1 59.1179 14.417 2.67831
1 62.0631 11.3047 2.71278
1 60.5104 15.9414 -1.36189
1 63.4022 12.8533 -1.33009
1 64.734 14.237 2.78835
1 67.5756 11.2108 -2.79441
1 66.1267 15.6129 -1.31947
1 68.8596 12.5654 -1.31987
1 70.3333 13.9302 2.74889
1 73.1105 11.0597 2.64955
1 71.6276 15.3829 -1.29237
1 74.3796 12.4597 -1.38666
1 75.7288 13.8714 2.70285
1 78.4552 11.0138 -2.89518
1 76.9619 15.3229 -1.27839
1 79.7338 12.4208 -1.35055
1 81.0616 13.7556 2.67123
1 83.8015 10.889 2.57812
1 82.4027 15.1479 -1.45494
1 85.2304 12.1948 -1.50779
1 86.493 13.5799 2.52009
1 89.3905 10.8755 -2.80537
1 87.8285 14.837 -1.47409
1 90.6857 12.157 -1.32621
1 92.1013 13.627 2.8653
1 94.9448 10.9619 2.66664
1 93.3699 15.0775 -1.28384
1 96.2997 12.3141 -1.31627
1 97.7306 13.6456 2.70495
1 100.435 10.7769 -2.73056
1 99.0201 14.9293 -1.19877
1 101.776 12.1498 -1.44187
1 103.139 13.5933 2.6993
1 105.834 10.865 -2.78052
1 104.406 15.1094 -1.39659
1 107.125 12.3148 -1.44797
1 108.404 13.7279 2.59494
5 0 24.4395 -2.68297
5 2.7155 21.724 2.66817
5 1.35775 25.7973 -1.35284
5 4.07325 23.0818 -1.38681
5 5.431 24.4395 -2.69603
5 8.1465 21.724 -2.67038
5 6.78875 25.7973 -1.36454
5 9.50425 23.0818 -1.3325
5 10.862 24.4395 -2.69503
5 13.5775 21.724 -2.67287
5 12.2197 25.7973 -1.38315
5 14.9352 23.0818 -1.25766
5 16.293 24.4395 -2.60809
5 19.0085 21.724 -2.61029
5 17.6507 25.7973 -1.26276
5 20.3663 23.0818 -1.26122
5 21.724 24.4395 -2.56915
5 24.4395 21.724 -2.60442
5 23.0817 25.7973 -1.29124
5 25.7973 23.0818 -1.27091
5 27.155 24.4395 -2.61904
5 29.8705 21.724 -2.60565
5 28.5128 25.7973 -1.34844
5 31.2282 23.0818 -1.27871
5 32.586 24.4395 -2.64748
5 35.3015 21.724 -2.70053
5 33.9438 25.7973 -1.25023
5 36.6593 23.0818 -1.34704
5 38.017 24.4395 2.67259
5 40.7325 21.724 2.63251
5 39.3747 25.7973 -1.36259
5 42.0902 23.0818 -1.39646
5 43.448 24.4395 2.68707
5 46.1635 21.724 2.71548
5 44.8058 25.7973 -1.35067
5 47.5213 23.0818 -1.28631
1 48.9106 23.8535 2.47999
1 51.2703 19.5615 2.0351
1 50.1658 24.7481 -1.25513
1 52.4188 20.5049 -1.23078
1 53.9764 21.7793 2.58939
1 56.4784 17.9233 2.69412
1 55.3435 22.835 -1.2507
1 57.7779 19.2279 -1.21549
1 59.1231 20.5548 2.71569
1 62.0046 17.3346 2.73863
1 60.523 21.9642 -1.38751
1 63.3277 18.7418 -1.30114
1 64.6459 20.0239 -2.69513
1 67.4801 16.9854 -2.72281
1 66.0536 21.5114 -1.31553
1 68.808 18.3949 -1.18659
1 70.0784 19.779 2.81738
1 72.8452 16.8206 2.70989
1 71.4989 21.1645 -1.30584
1 74.2161 18.1299 -1.28872
1 75.4231 19.573 2.69733
1 78.3087 16.7133 2.73519
1 76.9416 20.8291 -1.36382
1 79.739 17.9493 -1.33525
1 80.9552 19.345 2.59858
1 83.7757 16.4025 2.6805
1 82.2998 20.6939 -1.37173
1 85.0276 17.8051 -1.36317
1 86.4015 19.1456 -2.79773
1 89.1879 16.29 2.72992
1 87.7211 20.5439 -1.48005
1 90.59 17.7229 -1.31534
1 91.8927 19.0127 -2.71472
1 94.8252 16.2712 -2.66926
1 93.3239 20.3745 -1.244
1 96.1561 17.6475 -1.27767
1 97.4162 19.0615 -2.72533
1 100.344 16.2066 2.75704
1 98.7325 20.4238 -1.2797
1 101.473 17.7499 -1.30081
1 102.917 18.9924 2.73497
1 105.67 16.4747 2.57108
1 104.279 20.3508 -1.29081
1 107.083 17.7844 -1.55838
1 108.395 19.202 2.64815
5 0 29.8705 -2.60516
5 2.7155 27.155 -2.61144
5 1.35775 31.2283 -1.32667
5 4.07325 28.5128 -1.27164
5 5.431 29.8705 -2.60767
5 8.1465 27.155 2.70293
5 6.78875 31.2283 -1.25386
5 9.50425 28.5128 -1.3714
5 10.862 29.8705 2.66431
5 13.5775 27.155 2.68096
5 12.2197 31.2283 -1.34487
5 14.9352 28.5128 -1.40261
5 16.293 29.8705 -2.70308
5 19.0085 27.155 -2.61801
5 17.6507 31.2283 -1.35988
5 20.3663 28.5128 -1.29193
5 21.724 29.8705 -2.70039
5 24.4395 27.155 -2.65922
5 23.0817 31.2283 -1.33539
5 25.7973 28.5128 -1.31983
5 27.155 29.8705 -2.6812
5 29.8705 27.155 -2.66451
5 28.5128 31.2283 -1.28017
5 31.2282 28.5128 -1.31945
5 32.586 29.8705 -2.67376
5 35.3015 27.155 -2.61113
5 33.9438 31.2283 -1.32215
5 36.6593 28.5128 -1.33108
5 38.017 29.8705 -2.71374
5 40.7325 27.155 2.61908
5 39.3747 31.2283 -1.37859
5 42.0902 28.5128 -1.3818
5 43.448 29.8705 2.67422
5 46.1635 27.155 -2.68487
5 44.8058 31.2283 -1.30629
5 47.5213 28.5128 -1.37882
1 48.9233 29.6066 2.65337
1 51.4277 25.7432 2.5332
1 50.416 30.4117 -1.18702
1 52.7259 26.7602 -1.2117
1 54.1483 27.6688 2.5889
1 56.627 24.0427 2.64229
1 55.563 28.8318 -1.32655
1 57.9841 25.3739 -1.28104
1 59.2295 26.7385 -2.78696
1 61.9325 23.3394 -2.73191
1 60.7757 27.9373 -1.27323
1 63.3567 24.6606 -1.25259
1 64.8038 25.9295 -2.56096
1 67.472 22.9109 -2.68067
1 66.0669 27.2635 -1.24454
1 68.8114 24.3708 -1.21452
1 70.1381 25.7049 -2.68397
1 72.8886 22.5875 2.73089
1 71.5236 27.0075 -1.23271
1 74.1945 23.9168 -1.23545
1 75.6194 25.2161 -2.61084
1 78.3148 22.1879 -2.73324
1 76.9074 26.5423 -1.27081
1 79.5752 23.5433 -1.31073
1 80.9842 24.7727 -2.71232
1 83.5523 22.0303 2.668
1 82.2985 26.1543 -1.34838
1 84.9432 23.3185 -1.37825
1 86.5369 24.5495 -2.63543
1 89.2694 21.7488 -2.70421
1 87.814 25.954 -1.23355
1 90.5814 23.1346 -1.26641
1 91.9339 24.409 -2.70236
1 94.6128 21.8133 -2.69837
1 93.2383 25.8692 -1.29293
1 95.9121 23.0743 -1.27371
1 97.3349 24.4779 -2.64161
1 100.124 21.7114 2.79889
1 98.8259 25.7507 -1.28857
1 101.426 23.1206 -1.30915
1 102.848 24.4889 -2.66196
1 105.676 21.7716 2.69086
1 104.222 25.7683 -1.27922
1 106.985 23.0195 -1.32789
1 108.369 24.3215 2.79977
5 0 35.3015 -2.61255
5 2.7155 32.586 -2.65371
5 1.35775 36.6593 -1.27513
5 4.07325 33.9438 -1.30261
5 5.431 35.3015 -2.64002
5 8.1465 32.586 -2.59984
5 6.78875 36.6593 -1.3368
5 9.50425 33.9438 -1.27458
5 10.862 35.3015 -2.67215
5 13.5775 32.586 -2.69727
5 12.2197 36.6593 -1.34555
5 14.9352 33.9438 -1.32603
5 16.293 35.3015 -2.69421
5 19.0085 32.586 -2.66204
5 17.6507 36.6593 -1.3507
5 20.3663 33.9438 -1.34382
5 21.724 35.3015 -2.62154
5 24.4395 32.586 -2.65716
5 23.0817 36.6593 -1.2423
5 25.7973 33.9438 -1.32218
5 27.155 35.3015 -2.65781
5 29.8705 32.586 -2.61485
5 28.5128 36.6593 -1.29348
5 31.2282 33.9438 -1.28748
5 32.586 35.3015 2.67894
5 35.3015 32.586 2.69709
5 33.9438 36.6593 -1.35029
5 36.6593 33.9438 -1.40766
5 38.017 35.3015 -2.6921
5 40.7325 32.586 -2.68114
5 39.3747 36.6593 -1.34217
5 42.0902 33.9438 -1.32669
5 43.448 35.3015 -2.70833
5 46.1635 32.586 -2.69833
5 44.8058 36.6593 -1.35261
5 47.5213 33.9438 -1.25627
1 48.8299 35.0813 2.65125
1 51.735 31.5234 -2.70497
1 50.1684 36.1115 -1.25756
1 52.9888 32.5643 -1.10634
1 54.292 33.6909 2.75919
1 56.889 30.164 2.64985
1 55.6742 34.9812 -1.27426
1 58.152 31.528 -1.30603
1 59.6681 32.6984 -2.59708
1 62.1234 29.2782 2.80481
1 60.9548 33.8976 -1.16553
1 63.4266 30.6373 -1.17394
1 64.8057 31.8428 -2.69235
1 67.4512 28.748 -2.54341
1 66.355 33.1758 -1.38433
1 68.9131 30.0207 -1.19718
1 70.3028 31.2374 -2.71179
1 72.9701 28.1766 -2.59075
1 71.7142 32.4874 -1.24471
1 74.3897 29.4735 -1.31571
1 75.7164 30.8495 2.65815
1 78.3279 27.8716 2.78178
1 77.1921 32.088 -1.32116
1 79.7892 29.1339 -1.28693
1 81.1493 30.4393 -2.63552
1 83.7804 27.4481 -2.68758
1 82.5198 31.7806 -1.21787
1 85.1271 28.8627 -1.28486
1 86.6109 30.1434 -2.61467
1 89.2836 27.3213 -2.55812
1 87.9922 31.5075 -1.17984
1 90.6101 28.7306 -1.13384
1 92.0962 29.9606 -2.48772
1 94.6454 27.1527 -2.67029
1 93.4493 31.3462 -1.1222
1 96.0459 28.4112 -1.24156
1 97.4551 29.8818 -2.60045
1 100.195 27.1147 -2.70327
1 98.8759 31.1635 -1.14116
1 101.565 28.5051 -1.33703
1 102.994 29.8907 -2.63816
1 105.776 27.0288 -2.62245
1 104.59 31.1177 -1.2005
1 107.105 28.2588 -1.20588
1 108.535 29.6068 -2.51338
5 0 40.7325 -2.63206
5 2.7155 38.017 -2.62245
5 1.35775 42.0903 -1.23887
5 4.07325 39.3748 -1.37622
5 5.431 40.7325 -2.70393
5 8.1465 38.017 -2.64732
5 6.78875 42.0903 -1.31106
5 9.50425 39.3748 -1.31103
5 10.862 40.7325 -2.71065
5 13.5775 38.017 -2.69663
5 12.2197 42.0903 -1.33369
5 14.9352 39.3748 -1.42543
5 16.293 40.7325 2.65473
5 19.0085 38.017 -2.70883
5 17.6507 42.0903 -1.40294
5 20.3663 39.3748 -1.3188
5 21.724 40.7325 -2.67508
5 24.4395 38.017 -2.635
5 23.0817 42.0903 -1.29482
5 25.7973 39.3748 -1.25273
5 27.155 40.7325 -2.64535
5 29.8705 38.017 -2.66406
5 28.5128 42.0903 -1.30055
5 31.2282 39.3748 -1.34962
5 32.586 40.7325 -2.65732
5 35.3015 38.017 2.68513
5 33.9438 42.0903 -1.29404
5 36.6593 39.3748 -1.30892
5 38.017 40.7325 -2.65154
5 40.7325 38.017 2.71404
5 39.3747 42.0903 -1.32387
5 42.0902 39.3748 -1.3825
5 43.448 40.7325 2.69512
5 46.1635 38.017 -2.68039
5 44.8058 42.0903 -1.31034
5 47.5213 39.3748 -1.29656
1 48.8363 40.4726 2.66289
1 51.5746 37.2202 2.55495
1 50.2168 41.5679 -1.31307
1 52.9076 38.3827 -1.3523
1 54.3179 39.472 2.62765
1 57.1267 36.1358 -2.73816
1 55.7045 40.4789 -1.15086
1 58.4058 37.3129 -1.27151
1 59.8313 38.5031 -2.66995
1 62.3207 35.1609 -2.71488
1 61.2399 39.668 -1.21215
1 63.7686 36.3248 -1.30945
1 65.0738 37.483 2.61017
1 67.7737 34.3914 2.6711
1 66.3949 38.7853 -1.29853
1 69.2187 35.7112 -1.23031
1 70.5244 36.9383 2.69072
1 73.1206 33.8229 -2.63667
1 71.9514 38.1888 -1.33897
1 74.44 35.1629 -1.34886
1 75.9521 36.3664 -2.7008
1 78.5848 33.3889 2.78176
1 77.4713 37.5859 -1.35636
1 80.0401 34.6588 -1.19078
1 81.4585 35.9028 2.83125
1 83.9937 33.0881 -2.49278
1 82.8476 37.1524 -1.32781
1 85.4376 34.4697 -1.24403
1 86.7949 35.7185 2.70787
1 89.3116 32.8996 -2.51964
1 88.3141 37.0144 -1.35993
1 90.8583 34.1216 -1.11421
1 92.198 35.4384 -2.57372
1 94.8642 32.557 -2.55392
1 93.6408 36.7558 -1.22599
1 96.284 33.94 -1.1876
1 97.6692 35.3177 -2.48098
1 100.338 32.5061 -2.57779
1 99.1427 36.5221 -1.0885
1 101.691 33.8454 -1.20923
1 103.192 35.2344 -2.51692
1 105.864 32.4365 -2.58013
1 104.654 36.4221 -1.07211
1 107.283 33.624 -1.18569
1 108.652 35.1557 -2.16236
5 0 46.1635 -2.7087
5 2.7155 43.448 -2.66017
5 1.35775 47.5213 -1.34666
5 4.07325 44.8058 -1.33436
5 5.431 46.1635 -2.70139
5 8.1465 43.448 2.67524
5 6.78875 47.5213 -1.38754
5 9.50425 44.8058 -1.33276
5 10.862 46.1635 2.70549
5 13.5775 43.448 2.70846
5 12.2197 47.5213 -1.36249
5 14.9352 44.8058 -1.42273
5 16.293 46.1635 2.63609
5 19.0085 43.448 2.69188
5 17.6507 47.5213 -1.39416
5 20.3663 44.8058 -1.36012
5 21.724 46.1635 -2.64803
5 24.4395 43.448 -2.61737
5 23.0817 47.5213 -1.29583
5 25.7973 44.8058 -1.29132
5 27.155 46.1635 -2.6977
5 29.8705 43.448 -2.6352
5 28.5128 47.5213 -1.33573
5 31.2282 44.8058 -1.2468
5 32.586 46.1635 2.70267
5 35.3015 43.448 -2.67157
5 33.9438 47.5213 -1.43523
5 36.6593 44.8058 -1.34332
5 38.017 46.1635 -2.70054
5 40.7325 43.448 -2.63009
5 39.3747 47.5213 -1.3665
5 42.0902 44.8058 -1.31323
5 43.448 46.1635 -2.69775
5 46.1635 43.448 -2.69548
5 44.8058 47.5213 -1.38377
5 47.5213 44.8058 -1.43507
1 48.9413 45.9451 2.54003
1 51.6616 42.6534 2.66416
1 50.3935 47.0753 -1.40323
1 53.0062 43.7876 -1.34452
1 54.4303 44.9683 2.60433
1 57.111 41.6738 2.77322
1 55.972 46.1219 -1.42349
1 58.5983 42.9166 -1.34819
1 60.0671 44.0924 -2.78111
1 62.6017 40.8135 2.72198
1 61.4725 45.1958 -1.36393
1 63.9681 42.0089 -1.17167
1 65.3396 43.1874 2.78083
1 67.8327 39.9645 2.70902
1 66.7919 44.1752 -1.22608
1 69.2834 41.0809 -1.20898
1 70.7264 42.3726 2.84609
1 73.3763 39.4448 2.72064
1 72.2541 43.6722 -1.3093
1 74.7686 40.6281 -1.32901
1 76.2659 41.7934 2.63158
1 78.9449 38.9026 -2.87039
1 77.7953 43.0868 -1.51556
1 80.387 40.2087 -1.43273
1 81.764 41.3896 2.62909
1 84.3139 38.4723 2.68588
1 83.2197 42.7307 -1.54044
1 85.7486 39.8277 -1.48736
1 87.1801 41.228 2.71389
1 89.6711 38.3361 2.67115
1 88.5957 42.5078 -1.34292
1 91.1218 39.63 -1.32444
1 92.6039 40.973 -2.59189
1 95.1023 38.13 -2.58718
1 94.1602 42.1769 -1.22199
1 96.6476 39.5301 -1.25851
1 98.184 40.6915 -2.56649
1 100.591 37.8676 -2.53943
1 99.5269 42.0856 -1.18068
1 102.058 39.1534 -1.18979
1 103.484 40.4412 -2.43698
1 106.054 37.8365 -2.38483
1 104.968 41.7066 -1.06703
1 107.457 39.1389 -1.09343
1 108.982 40.3919 -2.29099
5 0 51.5945 2.69626
5 2.7155 48.879 2.70377
5 1.35775 52.9523 -1.43462
5 4.07325 50.2368 -1.3614
5 5.431 51.5945 2.66903
5 8.1465 48.879 2.69325
5 6.78875 52.9523 -1.42813
5 9.50425 50.2368 -1.39917
5 10.862 51.5945 -2.69138
5 13.5775 48.879 2.6786
5 12.2197 52.9523 -1.32651
5 14.9352 50.2368 -1.41305
5 16.293 51.5945 2.68531
5 19.0085 48.879 2.6318
5 17.6507 52.9523 -1.37599
5 20.3663 50.2368 -1.34193
5 21.724 51.5945 -2.70744
5 24.4395 48.879 -2.69157
5 23.0817 52.9523 -1.42461
5 25.7973 50.2368 -1.32762
5 27.155 51.5945 -2.69109
5 29.8705 48.879 2.68948
5 28.5128 52.9523 -1.34445
5 31.2282 50.2368 -1.39488
5 32.586 51.5945 2.62298
5 35.3015 48.879 2.67038
5 33.9438 52.9523 -1.44312
5 36.6593 50.2368 -1.34959
5 38.017 51.5945 2.65295
5 40.7325 48.879 2.67151
5 39.3747 52.9523 -1.39945
5 42.0902 50.2368 -1.42137
5 43.448 51.5945 2.64212
5 46.1635 48.879 2.68335
5 44.8058 52.9523 -1.39413
5 47.5213 50.2368 -1.3556
1 48.9234 51.4828 2.6425
1 51.7353 48.3108 2.50757
1 50.3641 52.5932 -1.38001
1 53.1922 49.448 -1.39417
1 54.5116 50.5142 -2.9132
1 57.3977 47.3225 2.55862
1 56.0146 51.5267 -1.32607
1 58.9103 48.3758 -1.43931
1 60.342 49.5088 2.54929
1 62.8363 46.3941 2.5528
1 61.788 50.6126 -1.47215
1 64.383 47.4761 -1.40546
1 65.8004 48.6585 2.57249
1 68.1413 45.3926 -2.6728
1 67.201 49.7659 -1.42515
1 69.7163 46.5618 -1.3164
1 71.2627 47.7647 -2.60555
1 73.7388 44.7504 -2.76985
1 72.5852 48.9947 -1.13937
1 75.1819 46.0123 -1.39555
1 76.7068 47.1747 -2.66093
1 79.2506 44.2829 2.61245
1 78.232 48.3621 -1.31239
1 80.6559 45.5153 -1.42661
1 82.1659 46.8156 2.69909
1 84.6696 44.024 2.66144
1 83.6551 48.1324 -1.41891
1 86.046 45.3304 -1.34311
1 87.593 46.5497 -2.71718
1 90.0782 43.7724 -2.66798
1 89.0335 47.8417 -1.37797
1 91.4798 44.9798 -1.27803
1 92.9019 46.2832 -2.60358
1 95.4654 43.5609 -2.56413
1 94.3809 47.6459 -1.33142
1 96.9237 44.8218 -1.21057
1 98.317 46.1354 -2.61239
1 101.106 43.3082 -2.56884
1 99.857 47.3969 -1.24463
1 102.451 44.548 -1.09725
1 103.813 45.8923 -2.45774
1 106.328 43.1102 -2.33537
1 105.246 47.2147 -1.09016
1 107.766 44.3821 -1.03301
1 109.22 45.6573 -2.33712
5 0 57.0255 2.57754
5 2.7155 54.31 2.64053
5 1.35775 58.3833 -1.64768
5 4.07325 55.6678 -1.50163
5 5.431 57.0255 2.56851
5 8.1465 54.31 2.62507
5 6.78875 58.3833 -1.42812
5 9.50425 55.6678 -1.37979
5 10.862 57.0255 -2.69272
5 13.5775 54.31 -2.66952
5 12.2197 58.3833 -1.39708
5 14.9352 55.6678 -1.43616
5 16.293 57.0255 -2.69633
5 19.0085 54.31 2.68719
5 17.6507 58.3833 -1.33896
5 20.3663 55.6678 -1.34394
5 21.724 57.0255 -2.69455
5 24.4395 54.31 2.68998
5 23.0817 58.3833 -1.26596
5 25.7973 55.6678 -1.39947
5 27.155 57.0255 2.63398
5 29.8705 54.31 2.63662
5 28.5128 58.3833 -1.50085
5 31.2282 55.6678 -1.47108
5 32.586 57.0255 2.6301
5 35.3015 54.31 2.61251
5 33.9438 58.3833 -1.50733
5 36.6593 55.6678 -1.47034
5 38.017 57.0255 2.59325
5 40.7325 54.31 2.62687
5 39.3747 58.3833 -1.5399
5 42.0902 55.6678 -1.42688
5 43.448 57.0255 2.68125
5 46.1635 54.31 -2.71417
5 44.8058 58.3833 -1.3795
5 47.5213 55.6678 -1.3201
1 49.0196 56.8573 -2.82073
1 51.8408 53.715 2.61094
1 50.6696 57.8084 -1.36638
1 53.4588 54.7796 -1.39192
1 54.9949 55.8062 2.64129
1 57.4922 52.5852 2.69279
1 56.5628 56.9626 -1.46731
1 59.1074 53.7523 -1.47733
1 60.7206 54.8364 2.57316
1 63.3356 51.8956 2.61565
1 62.224 56.0362 -1.41611
1 64.734 52.9634 -1.31564
1 66.3986 54.0544 2.82668
1 68.6951 50.9017 -2.78523
1 67.9012 55.2405 -1.20416
1 70.2124 52.0844 -1.33144
1 71.6524 53.3255 -2.62353
1 74.1495 50.0655 -2.55175
1 73.1976 54.419 -1.19976
1 75.575 51.2689 -1.19579
1 77.1197 52.4664 -2.55906
1 79.6872 49.578 -2.62618
1 78.5383 53.7179 -1.19924
1 81.0135 50.889 -1.31979
1 82.5317 52.2733 -2.66893
1 85.0932 49.4746 -2.78103
1 83.9997 53.5636 -1.27973
1 86.5123 50.7062 -1.32635
1 87.9574 51.8617 -2.77367
1 90.3636 49.2272 -2.69215
1 89.302 53.2056 -1.32798
1 91.9044 50.4202 -1.38511
1 93.42 51.7731 -2.75062
1 95.8266 48.9712 2.77911
1 94.6617 53.1579 -1.29922
1 97.3419 50.3537 -1.29728
1 98.7465 51.5799 -2.66293
1 101.3 48.7426 -2.54709
1 100.161 52.8629 -1.15576
1 102.657 49.9835 -1.1866
1 104.052 51.3053 -2.44617
1 106.658 48.4711 -2.46699
1 105.338 52.5821 -1.05776
1 108.045 49.8669 -1.08096
1 109.384 51.3274 -2.25258
5 2.7155 59.741 2.54749
5 8.1465 59.741 2.64951
5 13.5775 59.741 -2.68338
5 19.0085 59.741 -2.68381
5 24.4395 59.741 -2.67579
5 29.8705 59.741 2.66759
5 35.3015 59.741 2.59217
5 40.7325 59.741 2.5164
5 46.1635 59.741 2.66036
1 52.349 58.9814 2.68361
1 58.0774 58.1057 2.65255
1 63.8709 57.1039 2.78719
1 69.3764 56.3178 -2.61147
1 74.5659 55.5394 -2.73089
1 79.9164 55.046 -2.52526
1 85.5654 54.7699 -2.47283
1 90.8359 54.5789 -2.53158
1 96.1736 54.5115 -2.57412
1 101.665 54.0446 -2.38987
1 106.627 53.9108 -2.41564
5 0 5.431 0
5 2.7155 8.1465 0
5 1.35775 6.78875 1.35775
5 4.07325 9.50425 1.35775
5 5.431 5.431 0
5 8.1465 8.1465 0
5 6.78875 6.78875 1.35775
5 9.50425 9.50425 1.35775
5 10.862 5.431 0
5 13.5775 8.1465 0
5 12.2197 6.78875 1.35775
5 14.9352 9.50425 1.35775
5 16.293 5.431 0
5 19.0085 8.1465 0
5 17.6507 6.78875 1.35775
5 20.3663 9.50425 1.35775
5 21.724 5.431 0
5 24.4395 8.1465 0
5 23.0817 6.78875 1.35775
5 25.7973 9.50425 1.35775
5 27.155 5.431 0
5 29.8705 8.1465 0
5 28.5128 6.78875 1.35775
5 31.2282 9.50425 1.35775
5 32.586 5.431 0
5 35.3015 8.1465 0
5 33.9438 6.78875 1.35775
5 36.6593 9.50425 1.35775
5 38.017 5.431 0
5 40.7325 8.1465 0
5 39.3747 6.78875 1.35775
5 42.0902 9.50425 1.35775
5 43.448 5.431 0
5 46.1635 8.1465 0
5 44.8058 6.78875 1.35775
5 47.5213 9.50425 1.35775
4 48.879 0 0
4 51.5945 2.7155 0
4 50.2368 1.35775 1.35775
4 52.9522 4.07325 1.35775
4 54.31 0 0
4 57.0255 2.7155 0
4 55.6677 1.35775 1.35775
4 58.3833 4.07325 1.35775
4 59.741 0 0
4 62.4565 2.7155 0
4 61.0988 1.35775 1.35775
4 63.8143 4.07325 1.35775
4 65.172 0 0
4 67.8875 2.7155 0
4 66.5298 1.35775 1.35775
4 69.2452 4.07325 1.35775
4 70.603 0 0
4 73.3185 2.7155 0
4 71.9608 1.35775 1.35775
4 74.6762 4.07325 1.35775
4 76.034 0 0
4 78.7495 2.7155 0
4 77.3918 1.35775 1.35775
4 80.1073 4.07325 1.35775
4 81.465 0 0
4 84.1805 2.7155 0
4 82.8227 1.35775 1.35775
4 85.5383 4.07325 1.35775
4 86.896 0 0
4 89.6115 2.7155 0
4 88.2537 1.35775 1.35775
4 90.9693 4.07325 1.35775
4 92.327 0 0
4 95.0425 2.7155 0
4 93.6847 1.35775 1.35775
4 96.4002 4.07325 1.35775
4 97.758 0 0
4 100.474 2.7155 0
4 99.1158 1.35775 1.35775
4 101.831 4.07325 1.35775
4 103.189 0 0
4 105.904 2.7155 0
4 104.547 1.35775 1.35775
4 107.262 4.07325 1.35775
4 108.62 0 0
5 0 10.862 0
5 2.7155 13.5775 -0.030378
5 1.35775 12.2197 1.35775
5 4.07325 14.9352 1.31966
5 5.431 10.862 0
5 8.1465 13.5775 -0.00207584
5 6.78875 12.2197 1.35775
5 9.50425 14.9352 1.35242
5 10.862 10.862 0
5 13.5775 13.5775 -0.00491819
5 12.2197 12.2197 1.35775
5 14.9352 14.9352 1.31869
5 16.293 10.862 0
5 19.0085 13.5775 0.00290528
5 17.6507 12.2197 1.35775
5 20.3663 14.9352 1.35757
5 21.724 10.862 0
5 24.4395 13.5775 0.003671
5 23.0817 12.2197 1.35775
5 25.7973 14.9352 1.35541
5 27.155 10.862 0
5 29.8705 13.5775 0.0272404
5 28.5128 12.2197 1.35775
5 31.2282 14.9352 1.35189
5 32.586 10.862 0
5 35.3015 13.5775 0.00908262
5 33.9438 12.2197 1.35775
5 36.6593 14.9352 1.3219
5 38.017 10.862 0
5 40.7325 13.5775 0.0378749
5 39.3747 12.2197 1.35775
5 42.0902 14.9352 1.41817
5 43.448 10.862 0
5 46.1635 13.5775 0.0287579
5 44.8058 12.2197 1.35775
5 47.5213 14.9352 1.47408
4 48.879 5.431 0
1 51.3509 8.65699 -0.218758
4 50.2368 6.78875 1.35775
1 52.377 10.2033 1.46904
4 54.31 5.431 0
1 56.7925 8.40169 -0.0667465
4 55.6677 6.78875 1.35775
1 57.9194 9.88285 1.50302
4 59.741 5.431 0
1 62.3793 8.33655 -0.11711
4 61.0988 6.78875 1.35775
1 63.6504 9.75987 1.34295
4 65.172 5.431 0
1 67.8494 8.2886 -0.0865958
4 66.5298 6.78875 1.35775
1 68.9968 9.66085 1.36602
4 70.603 5.431 0
1 73.261 8.29003 -0.0384014
4 71.9608 6.78875 1.35775
1 74.5759 9.64189 1.40901
4 76.034 5.431 0
1 78.6902 8.15851 -0.116384
4 77.3918 6.78875 1.35775
1 79.8623 9.4988 1.27234
4 81.465 5.431 0
1 84.095 8.10278 -0.0346833
4 82.8227 6.78875 1.35775
1 85.3114 9.45354 1.32933
4 86.896 5.431 0
1 89.5711 8.18747 -0.0663324
4 88.2537 6.78875 1.35775
1 90.9053 9.53218 1.30644
4 92.327 5.431 0
1 94.9766 8.24509 -0.0845911
4 93.6847 6.78875 1.35775
1 96.207 9.60737 1.36736
4 97.758 5.431 0
1 100.464 8.12777 0.0890157
4 99.1158 6.78875 1.35775
1 101.835 9.44453 1.41884
4 103.189 5.431 0
1 105.829 8.11009 -0.0642927
4 104.547 6.78875 1.35775
1 107.208 9.53946 1.39833
4 108.62 5.431 0
5 0 16.293 -0.0123317
5 2.7155 19.0085 -0.0900773
5 1.35775 17.6508 1.31363
5 4.07325 20.3663 1.31552
5 5.431 16.293 -0.028277
5 8.1465 19.0085 0.0736872
5 6.78875 17.6508 1.35572
5 9.50425 20.3663 1.42897
5 10.862 16.293 -0.00815739
5 13.5775 19.0085 -0.00889917
5 12.2197 17.6508 1.39536
5 14.9352 20.3663 1.38529
5 16.293 16.293 0.0549538
5 19.0085 19.0085 0.0554889
5 17.6507 17.6508 1.37918
5 20.3663 20.3663 1.42657
5 21.724 16.293 0.0208951
5 24.4395 19.0085 0.114043
5 23.0817 17.6508 1.44745
5 25.7973 20.3663 1.4422
5 27.155 16.293 0.0476033
5 29.8705 19.0085 0.0464293
5 28.5128 17.6508 1.43601
5 31.2282 20.3663 1.44514
5 32.586 16.293 0.00606015
5 35.3015 19.0085 -0.0125542
5 33.9438 17.6508 1.32988
5 36.6593 20.3663 1.30038
5 38.017 16.293 -0.0451612
5 40.7325 19.0085 -0.0331181
5 39.3747 17.6508 1.29728
5 42.0902 20.3663 1.31001
5 43.448 16.293 0.0909414
5 46.1635 19.0085 0.049535
5 44.8058 17.6508 1.44404
5 47.5213 20.3663 1.35682
1 48.8383 15.6147 -0.46274
1 51.191 16.4302 -0.705359
1 49.8027 16.5105 1.48074
1 52.3585 17.2007 1.42826
1 53.4701 11.9363 -0.106992
1 56.3757 14.703 0.0625555
1 55.0113 13.2582 1.47883
1 57.7852 16.0925 1.45021
1 59.2263 11.3457 -0.0119002
1 61.9821 14.4657 -0.0870751
1 60.5762 12.8918 1.4096
1 63.3838 15.8304 1.33718
1 64.9259 11.2365 -0.0253994
1 67.4607 14.1138 -0.0419664
1 66.1705 12.727 1.35459
1 68.8202 15.4749 1.43849
1 70.3297 11.151 -0.0498904
1 72.9745 13.9114 0.0324299
1 71.6316 12.4684 1.42521
1 74.2987 15.4023 1.45876
1 75.7545 11.0247 -0.0228305
1 78.4165 13.8269 0.010111
1 77.0903 12.47 1.32351
1 79.7499 15.3052 1.34857
1 81.1318 10.9079 -0.0590843
1 83.7483 13.6823 -0.232703
1 82.4242 12.3316 1.35171
1 85.1108 14.9741 1.22971
1 86.6268 10.8394 -0.20146
1 89.3343 13.4824 -0.06354
1 87.8784 12.1173 1.30055
1 90.5781 14.8703 1.40672
1 92.2733 10.9295 -0.0201739
1 94.8426 13.6278 0.0298426
1 93.4903 12.3421 1.4328
1 96.2922 15.0192 1.3627
1 97.661 10.8894 0.0296218
1 100.462 13.4871 -0.0178005
1 99.0944 12.1197 1.32355
1 101.685 14.943 1.46456
1 103.168 10.8332 -0.00412055
1 105.722 13.7015 -0.139637
1 104.504 12.2798 1.29443
1 107.035 15.0795 1.21764
1 108.396 11.1272 0.188243
5 0 21.724 -0.0173586
5 2.7155 24.4395 -0.0570092
5 1.35775 23.0818 1.35192
5 4.07325 25.7973 1.36604
5 5.431 21.724 -0.0322161
5 8.1465 24.4395 -0.0570884
5 6.78875 23.0818 1.33234
5 9.50425 25.7973 1.3112
5 10.862 21.724 0.0309824
5 13.5775 24.4395 0.0204994
5 12.2197 23.0818 1.40551
5 14.9352 25.7973 1.37085
5 16.293 21.724 0.0443708
5 19.0085 24.4395 0.0781517
5 17.6507 23.0818 1.44641
5 20.3663 25.7973 1.49943
5 21.724 21.724 0.0729903
5 24.4395 24.4395 0.0643199
5 23.0817 23.0818 1.44338
5 25.7973 25.7973 1.43578
5 27.155 21.724 0.113391
5 29.8705 24.4395 0.0910919
5 28.5128 23.0818 1.44486
5 31.2282 25.7973 1.41612
5 32.586 21.724 0.0942093
5 35.3015 24.4395 0.134152
5 33.9438 23.0818 1.47964
5 36.6593 25.7973 1.48442
5 38.017 21.724 -0.0915324
5 40.7325 24.4395 -0.0843803
5 39.3747 23.0818 1.28708
5 42.0902 25.7973 1.31284
5 43.448 21.724 -0.0153745
5 46.1635 24.4395 -0.00254269
5 44.8058 23.0818 1.36298
5 47.5213 25.7973 1.37264
1 48.9527 21.0383 -0.294795
1 51.3762 22.6927 -0.226054
1 50.1833 21.8486 1.59793
1 52.6718 23.6358 1.5305
1 53.7888 18.5502 -0.1863
1 56.5647 20.9734 -0.10312
1 55.1999 19.7695 1.42742
1 57.8914 22.175 1.38775
1 59.0696 17.5115 -0.0810066
1 61.8755 20.2839 0.0426395
1 60.5183 18.912 1.37201
1 63.3131 21.6697 1.45682
1 64.7397 17.1752 -0.0368803
1 67.2946 19.8871 -0.0206177
1 66.0647 18.4582 1.45739
1 68.7901 21.252 1.38832
1 70.2135 16.8383 0.0241235
1 72.7515 19.596 0.00746221
1 71.3977 18.2325 1.46516
1 74.0952 21.0143 1.39137
1 75.5485 16.6892 0.0384095
1 78.2223 19.4412 -0.0772852
1 76.8738 18.0906 1.3491
1 79.5795 20.7846 1.3076
1 81.0781 16.6379 -0.0801433
1 83.6025 19.2739 -0.0872033
1 82.3605 17.9078 1.3504
1 84.9256 20.5723 1.32011
1 86.4827 16.3274 -0.156682
1 89.1264 19.1561 -0.00159698
1 87.724 17.7214 1.33137
1 90.4989 20.3781 1.33447
1 91.9851 16.2931 0.0891288
1 94.6472 18.9998 0.0632962
1 93.3016 17.6594 1.45506
1 96.0066 20.3127 1.42563
1 97.593 16.3888 0.0956704
1 100.128 19.1293 0.0833319
1 98.9086 17.6906 1.47284
1 101.499 20.4096 1.41531
1 102.96 16.4264 -0.0494016
1 105.746 19.0277 -0.017221
1 104.345 17.6788 1.26055
1 107.096 20.4555 1.25684
1 108.405 16.2754 -0.225994
5 0 27.155 0.0148145
5 2.7155 29.8705 0.104191
5 1.35775 28.5128 1.42655
5 4.07325 31.2283 1.46704
5 5.431 27.155 0.0198245
5 8.1465 29.8705 0.0958405
5 6.78875 28.5128 1.4123
5 9.50425 31.2283 1.37623
5 10.862 27.155 -0.0333202
5 13.5775 29.8705 -0.0406121
5 12.2197 28.5128 1.33511
5 14.9352 31.2283 1.4391
5 16.293 27.155 0.0241251